VARIABLES = Y,Z,U,V,W,UU,VV,WW,UV,UW,VW 
ZONE I = 128 J = 159 
0.019758 0.001367 0.009322 -0.000010 -0.000175 0.000019 0.000000 0.000003 -0.000000 -0.000001 0.000000 
0.019758 0.004182 0.028445 -0.000046 -0.000477 0.000175 0.000000 0.000021 -0.000001 -0.000007 0.000000 
0.019758 0.007160 0.048594 -0.000117 -0.000733 0.000510 0.000000 0.000055 -0.000006 -0.000020 0.000000 
0.019758 0.010310 0.069761 -0.000220 -0.000935 0.001051 0.000001 0.000101 -0.000018 -0.000039 0.000001 
0.019758 0.013643 0.091891 -0.000350 -0.001077 0.001810 0.000003 0.000156 -0.000040 -0.000062 0.000002 
0.019758 0.017168 0.114870 -0.000502 -0.001151 0.002785 0.000007 0.000218 -0.000075 -0.000089 0.000003 
0.019758 0.020895 0.138518 -0.000670 -0.001148 0.003944 0.000012 0.000284 -0.000125 -0.000117 0.000005 
0.019758 0.024835 0.162605 -0.000846 -0.001062 0.005234 0.000021 0.000352 -0.000190 -0.000144 0.000007 
0.019758 0.028999 0.186872 -0.001021 -0.000886 0.006585 0.000033 0.000421 -0.000267 -0.000167 0.000010 
0.019758 0.033400 0.211060 -0.001187 -0.000620 0.007932 0.000049 0.000491 -0.000352 -0.000187 0.000013 
0.019758 0.038048 0.234936 -0.001331 -0.000270 0.009224 0.000068 0.000562 -0.000442 -0.000203 0.000015 
0.019758 0.042958 0.258312 -0.001442 0.000149 0.010425 0.000093 0.000635 -0.000532 -0.000219 0.000016 
0.019758 0.048141 0.281047 -0.001507 0.000608 0.011507 0.000122 0.000712 -0.000622 -0.000237 0.000015 
0.019758 0.053613 0.303044 -0.001510 0.001075 0.012447 0.000155 0.000795 -0.000709 -0.000259 0.000012 
0.019758 0.059386 0.324240 -0.001438 0.001509 0.013223 0.000192 0.000883 -0.000795 -0.000282 0.000008 
0.019758 0.065476 0.344604 -0.001280 0.001878 0.013817 0.000233 0.000976 -0.000879 -0.000303 0.000003 
0.019758 0.071898 0.364144 -0.001029 0.002160 0.014222 0.000278 0.001070 -0.000962 -0.000317 -0.000001 
0.019758 0.078667 0.382913 -0.000679 0.002352 0.014434 0.000328 0.001166 -0.001044 -0.000322 -0.000003 
0.019758 0.085800 0.401016 -0.000230 0.002467 0.014455 0.000383 0.001265 -0.001123 -0.000315 -0.000004 
0.019758 0.093313 0.418595 0.000318 0.002533 0.014285 0.000442 0.001371 -0.001199 -0.000299 -0.000003 
0.019758 0.101222 0.435781 0.000961 0.002573 0.013926 0.000507 0.001480 -0.001270 -0.000275 -0.000003 
0.019758 0.109546 0.452652 0.001688 0.002608 0.013390 0.000576 0.001583 -0.001334 -0.000248 -0.000004 
0.019758 0.118301 0.469197 0.002483 0.002656 0.012718 0.000648 0.001666 -0.001388 -0.000221 -0.000006 
0.019758 0.127505 0.485292 0.003326 0.002732 0.011991 0.000724 0.001720 -0.001430 -0.000197 -0.000006 
0.019758 0.137177 0.500693 0.004186 0.002848 0.011310 0.000801 0.001747 -0.001459 -0.000179 -0.000002 
0.019758 0.147334 0.515068 0.005020 0.002997 0.010736 0.000880 0.001763 -0.001479 -0.000158 0.000003 
0.019758 0.157995 0.528161 0.005780 0.003146 0.010263 0.000957 0.001786 -0.001493 -0.000116 0.000005 
0.019758 0.169178 0.539926 0.006430 0.003241 0.009849 0.001033 0.001822 -0.001507 -0.000036 0.000003 
0.019758 0.180900 0.550485 0.006950 0.003205 0.009472 0.001108 0.001862 -0.001530 0.000076 -0.000005 
0.019758 0.193181 0.560081 0.007341 0.002961 0.009132 0.001181 0.001897 -0.001566 0.000209 -0.000019 
0.019758 0.206037 0.569028 0.007605 0.002482 0.008816 0.001250 0.001926 -0.001607 0.000346 -0.000033 
0.019758 0.219486 0.577558 0.007754 0.001776 0.008491 0.001318 0.001943 -0.001653 0.000466 -0.000041 
0.019758 0.233544 0.585791 0.007808 0.000908 0.008142 0.001388 0.001942 -0.001702 0.000540 -0.000036 
0.019758 0.248227 0.593695 0.007778 0.000097 0.007784 0.001456 0.001925 -0.001745 0.000545 -0.000020 
0.019758 0.263550 0.601034 0.007646 -0.000451 0.007471 0.001513 0.001899 -0.001772 0.000523 -0.000006 
0.019758 0.279527 0.607643 0.007363 -0.000750 0.007259 0.001553 0.001886 -0.001769 0.000541 0.000000 
0.019758 0.296171 0.613782 0.006911 -0.000911 0.007127 0.001574 0.001904 -0.001731 0.000591 0.000006 
0.019758 0.313493 0.620071 0.006366 -0.001012 0.006932 0.001576 0.001936 -0.001665 0.000638 0.000019 
0.019758 0.331503 0.627101 0.005857 -0.001110 0.006532 0.001562 0.001949 -0.001586 0.000650 0.000036 
0.019758 0.350210 0.634848 0.005485 -0.001196 0.005998 0.001533 0.001962 -0.001521 0.000594 0.000046 
0.019758 0.369619 0.642895 0.005267 -0.001235 0.005478 0.001496 0.001990 -0.001481 0.000492 0.000051 
0.019758 0.389736 0.651079 0.005115 -0.001325 0.005033 0.001454 0.002021 -0.001451 0.000382 0.000060 
0.019758 0.410561 0.659257 0.004901 -0.001635 0.004705 0.001412 0.002059 -0.001408 0.000284 0.000074 
0.019758 0.432095 0.667306 0.004560 -0.002281 0.004445 0.001366 0.002081 -0.001340 0.000245 0.000082 
0.019758 0.454334 0.675168 0.004154 -0.003086 0.004214 0.001318 0.002030 -0.001252 0.000253 0.000081 
0.019758 0.477272 0.682627 0.003837 -0.003497 0.004047 0.001272 0.001902 -0.001180 0.000238 0.000073 
0.019758 0.500901 0.689318 0.003715 -0.003218 0.003965 0.001230 0.001759 -0.001147 0.000215 0.000059 
0.019758 0.525209 0.695579 0.003753 -0.002580 0.003855 0.001186 0.001642 -0.001125 0.000233 0.000033 
0.019758 0.550180 0.701738 0.003815 -0.001953 0.003711 0.001135 0.001530 -0.001083 0.000244 0.000011 
0.019758 0.575798 0.707708 0.003758 -0.001437 0.003549 0.001087 0.001411 -0.001024 0.000216 0.000009 
0.019758 0.602039 0.713450 0.003527 -0.000856 0.003408 0.001048 0.001299 -0.000969 0.000155 0.000026 
0.019758 0.628879 0.719236 0.003168 -0.000118 0.003260 0.001015 0.001188 -0.000916 0.000096 0.000047 
0.019758 0.656291 0.725182 0.002767 0.000758 0.003115 0.000980 0.001072 -0.000857 0.000055 0.000053 
0.019758 0.684242 0.730838 0.002349 0.001642 0.002944 0.000939 0.000991 -0.000777 0.000038 0.000040 
0.019758 0.712699 0.735985 0.001884 0.002210 0.002723 0.000895 0.000956 -0.000679 0.000042 0.000024 
0.019758 0.741623 0.741049 0.001430 0.002362 0.002483 0.000856 0.000931 -0.000585 0.000043 0.000022 
0.019758 0.770975 0.746063 0.001092 0.002367 0.002261 0.000822 0.000907 -0.000513 0.000036 0.000032 
0.019758 0.800710 0.750997 0.000878 0.002410 0.002038 0.000790 0.000889 -0.000449 0.000023 0.000044 
0.019758 0.830784 0.755751 0.000702 0.002488 0.001814 0.000760 0.000870 -0.000383 0.000002 0.000055 
0.019758 0.861148 0.759960 0.000477 0.002489 0.001631 0.000728 0.000837 -0.000319 -0.000008 0.000059 
0.019758 0.891751 0.763598 0.000165 0.002467 0.001469 0.000695 0.000796 -0.000247 -0.000004 0.000050 
0.019758 0.922544 0.766713 -0.000216 0.002570 0.001316 0.000661 0.000765 -0.000171 -0.000002 0.000033 
0.019758 0.953472 0.768954 -0.000634 0.002808 0.001187 0.000633 0.000741 -0.000091 -0.000007 0.000016 
0.019758 0.984481 0.770085 -0.001073 0.003045 0.001105 0.000618 0.000726 -0.000003 -0.000011 -0.000002 
0.019758 1.015518 0.770149 -0.001511 0.003119 0.001089 0.000626 0.000728 0.000084 -0.000005 -0.000014 
0.019758 1.046528 0.769078 -0.001922 0.003026 0.001126 0.000658 0.000746 0.000156 0.000012 -0.000018 
0.019758 1.077456 0.767323 -0.002282 0.002871 0.001201 0.000709 0.000772 0.000221 0.000012 -0.000026 
0.019758 1.108249 0.765467 -0.002556 0.002708 0.001230 0.000772 0.000812 0.000273 0.000002 -0.000042 
0.019758 1.138852 0.763248 -0.002730 0.002644 0.001247 0.000830 0.000851 0.000314 -0.000017 -0.000061 
0.019758 1.169216 0.760213 -0.002803 0.002561 0.001322 0.000873 0.000875 0.000365 -0.000049 -0.000072 
0.019758 1.199290 0.756513 -0.002762 0.002229 0.001468 0.000899 0.000884 0.000434 -0.000080 -0.000061 
0.019758 1.229025 0.752731 -0.002625 0.001666 0.001615 0.000908 0.000891 0.000501 -0.000107 -0.000032 
0.019758 1.258377 0.749118 -0.002451 0.000897 0.001719 0.000909 0.000905 0.000553 -0.000120 0.000000 
0.019758 1.287301 0.745491 -0.002302 -0.000119 0.001821 0.000909 0.000940 0.000591 -0.000101 0.000026 
0.019758 1.315758 0.741837 -0.002193 -0.001128 0.001927 0.000913 0.000997 0.000624 -0.000070 0.000041 
0.019758 1.343709 0.737824 -0.002116 -0.001786 0.002037 0.000915 0.001044 0.000662 -0.000062 0.000039 
0.019758 1.371121 0.733266 -0.002069 -0.002004 0.002178 0.000915 0.001069 0.000701 -0.000069 0.000032 
0.019758 1.397961 0.728459 -0.002014 -0.001888 0.002290 0.000919 0.001078 0.000725 -0.000075 0.000026 
0.019758 1.424203 0.723442 -0.001896 -0.001499 0.002346 0.000930 0.001110 0.000738 -0.000074 0.000013 
0.019758 1.449820 0.718298 -0.001691 -0.000715 0.002372 0.000949 0.001156 0.000746 -0.000075 -0.000003 
0.019758 1.474791 0.713121 -0.001405 0.000378 0.002408 0.000973 0.001202 0.000745 -0.000085 -0.000015 
0.019758 1.499099 0.707806 -0.001074 0.001508 0.002522 0.000997 0.001257 0.000749 -0.000107 -0.000027 
0.019758 1.522728 0.702374 -0.000717 0.002359 0.002758 0.001021 0.001323 0.000772 -0.000147 -0.000045 
0.019758 1.545666 0.697053 -0.000310 0.002971 0.003005 0.001053 0.001408 0.000814 -0.000194 -0.000068 
0.019758 1.567905 0.691766 0.000163 0.003368 0.003160 0.001095 0.001495 0.000877 -0.000251 -0.000090 
0.019758 1.589439 0.686345 0.000667 0.003357 0.003312 0.001142 0.001555 0.000961 -0.000297 -0.000102 
0.019758 1.610264 0.681011 0.001137 0.002888 0.003462 0.001192 0.001583 0.001041 -0.000300 -0.000100 
0.019758 1.630381 0.675748 0.001513 0.002174 0.003611 0.001243 0.001604 0.001104 -0.000268 -0.000093 
0.019758 1.649790 0.670303 0.001797 0.001435 0.003815 0.001294 0.001624 0.001167 -0.000231 -0.000085 
0.019758 1.668497 0.664644 0.002063 0.000729 0.004066 0.001336 0.001647 0.001231 -0.000208 -0.000076 
0.019758 1.686507 0.658832 0.002349 -0.000011 0.004308 0.001356 0.001666 0.001284 -0.000216 -0.000065 
0.019758 1.703829 0.652752 0.002623 -0.000789 0.004545 0.001355 0.001678 0.001320 -0.000245 -0.000058 
0.019758 1.720473 0.646356 0.002849 -0.001527 0.004793 0.001346 0.001690 0.001347 -0.000281 -0.000055 
0.019758 1.736450 0.639687 0.003032 -0.002135 0.005049 0.001334 0.001706 0.001362 -0.000312 -0.000050 
0.019758 1.751773 0.632596 0.003194 -0.002522 0.005320 0.001321 0.001726 0.001362 -0.000333 -0.000037 
0.019758 1.766456 0.624892 0.003339 -0.002633 0.005625 0.001302 0.001754 0.001350 -0.000331 -0.000015 
0.019758 1.780514 0.616656 0.003450 -0.002474 0.005993 0.001276 0.001789 0.001340 -0.000301 0.000012 
0.019758 1.793963 0.608120 0.003515 -0.002110 0.006434 0.001238 0.001822 0.001340 -0.000259 0.000042 
0.019758 1.806819 0.599426 0.003536 -0.001662 0.006943 0.001188 0.001849 0.001355 -0.000219 0.000069 
0.019758 1.819100 0.590717 0.003508 -0.001230 0.007462 0.001128 0.001874 0.001379 -0.000177 0.000090 
0.019758 1.830822 0.581995 0.003414 -0.000838 0.007886 0.001059 0.001901 0.001391 -0.000134 0.000097 
0.019758 1.842005 0.572966 0.003242 -0.000500 0.008199 0.000986 0.001918 0.001382 -0.000095 0.000086 
0.019758 1.852666 0.563245 0.003003 -0.000263 0.008463 0.000908 0.001916 0.001355 -0.000066 0.000060 
0.019758 1.862823 0.552538 0.002725 -0.000150 0.008752 0.000826 0.001891 0.001318 -0.000051 0.000026 
0.019758 1.872495 0.540670 0.002450 -0.000154 0.009090 0.000743 0.001841 0.001278 -0.000046 -0.000008 
0.019758 1.881699 0.527538 0.002211 -0.000249 0.009455 0.000661 0.001766 0.001236 -0.000051 -0.000035 
0.019758 1.890454 0.513091 0.002024 -0.000406 0.009818 0.000581 0.001677 0.001194 -0.000073 -0.000054 
0.019758 1.898778 0.497350 0.001888 -0.000603 0.010168 0.000504 0.001582 0.001153 -0.000122 -0.000065 
0.019758 1.906687 0.480369 0.001793 -0.000827 0.010495 0.000433 0.001482 0.001110 -0.000196 -0.000069 
0.019758 1.914200 0.462160 0.001725 -0.001074 0.010778 0.000368 0.001381 0.001058 -0.000288 -0.000068 
0.019758 1.921333 0.442670 0.001670 -0.001351 0.010977 0.000310 0.001282 0.000994 -0.000384 -0.000064 
0.019758 1.928102 0.421839 0.001617 -0.001665 0.011047 0.000260 0.001188 0.000917 -0.000473 -0.000059 
0.019758 1.934524 0.399643 0.001555 -0.002014 0.010961 0.000216 0.001101 0.000830 -0.000551 -0.000055 
0.019758 1.940614 0.376111 0.001480 -0.002385 0.010706 0.000178 0.001021 0.000737 -0.000619 -0.000051 
0.019758 1.946387 0.351316 0.001391 -0.002753 0.010273 0.000145 0.000947 0.000642 -0.000673 -0.000048 
0.019758 1.951859 0.325384 0.001288 -0.003087 0.009659 0.000115 0.000875 0.000548 -0.000711 -0.000044 
0.019758 1.957042 0.298495 0.001172 -0.003360 0.008878 0.000090 0.000803 0.000458 -0.000726 -0.000040 
0.019758 1.961952 0.270876 0.001045 -0.003552 0.007957 0.000067 0.000729 0.000373 -0.000717 -0.000035 
0.019758 1.966600 0.242796 0.000909 -0.003649 0.006932 0.000049 0.000652 0.000295 -0.000683 -0.000030 
0.019758 1.971001 0.214535 0.000768 -0.003645 0.005842 0.000033 0.000570 0.000224 -0.000625 -0.000025 
0.019758 1.975165 0.186377 0.000626 -0.003540 0.004727 0.000022 0.000485 0.000161 -0.000546 -0.000020 
0.019758 1.979105 0.158591 0.000488 -0.003335 0.003632 0.000013 0.000398 0.000107 -0.000452 -0.000015 
0.019758 1.982832 0.131427 0.000360 -0.003035 0.002613 0.000007 0.000310 0.000065 -0.000349 -0.000010 
0.019758 1.986357 0.105099 0.000247 -0.002647 0.001724 0.000003 0.000225 0.000035 -0.000246 -0.000006 
0.019758 1.989690 0.079775 0.000153 -0.002177 0.001011 0.000001 0.000147 0.000016 -0.000154 -0.000003 
0.019758 1.992840 0.055564 0.000080 -0.001633 0.000494 0.000000 0.000081 0.000006 -0.000080 -0.000001 
0.019758 1.995818 0.032522 0.000031 -0.001026 0.000169 0.000000 0.000031 0.000001 -0.000029 -0.000000 
0.019758 1.998633 0.010655 0.000006 -0.000364 0.000018 0.000000 0.000004 0.000000 -0.000003 -0.000000 
0.059275 0.001367 0.008868 -0.000003 -0.000007 0.000015 0.000000 0.000003 -0.000000 -0.000000 0.000000 
0.059275 0.004182 0.027058 -0.000014 -0.000029 0.000142 0.000000 0.000021 -0.000000 -0.000000 0.000000 
0.059275 0.007160 0.046224 -0.000035 -0.000060 0.000414 0.000000 0.000054 -0.000002 -0.000001 0.000000 
0.059275 0.010310 0.066379 -0.000066 -0.000096 0.000853 0.000001 0.000098 -0.000007 -0.000003 0.000001 
0.059275 0.013643 0.087505 -0.000103 -0.000134 0.001481 0.000002 0.000151 -0.000017 -0.000005 0.000002 
0.059275 0.017168 0.109545 -0.000144 -0.000169 0.002314 0.000005 0.000210 -0.000035 -0.000007 0.000003 
0.059275 0.020895 0.132387 -0.000184 -0.000193 0.003355 0.000009 0.000273 -0.000063 -0.000008 0.000005 
0.059275 0.024835 0.155858 -0.000219 -0.000200 0.004590 0.000016 0.000338 -0.000105 -0.000007 0.000007 
0.059275 0.028999 0.179733 -0.000242 -0.000180 0.005982 0.000026 0.000405 -0.000162 -0.000001 0.000008 
0.059275 0.033400 0.203744 -0.000244 -0.000127 0.007473 0.000039 0.000474 -0.000236 0.000008 0.000008 
0.059275 0.038048 0.227610 -0.000219 -0.000041 0.008990 0.000055 0.000545 -0.000324 0.000022 0.000007 
0.059275 0.042958 0.251067 -0.000159 0.000068 0.010462 0.000075 0.000619 -0.000425 0.000036 0.000003 
0.059275 0.048141 0.273894 -0.000059 0.000185 0.011826 0.000099 0.000698 -0.000538 0.000046 -0.000002 
0.059275 0.053613 0.295940 0.000085 0.000287 0.013035 0.000128 0.000782 -0.000658 0.000048 -0.000010 
0.059275 0.059386 0.317123 0.000277 0.000355 0.014059 0.000161 0.000870 -0.000785 0.000040 -0.000018 
0.059275 0.065476 0.337433 0.000520 0.000371 0.014878 0.000200 0.000962 -0.000915 0.000023 -0.000025 
0.059275 0.071898 0.356920 0.000817 0.000329 0.015483 0.000246 0.001054 -0.001042 -0.000001 -0.000030 
0.059275 0.078667 0.375679 0.001171 0.000232 0.015869 0.000298 0.001145 -0.001161 -0.000032 -0.000032 
0.059275 0.085800 0.393829 0.001582 0.000102 0.016037 0.000356 0.001239 -0.001268 -0.000068 -0.000028 
0.059275 0.093313 0.411503 0.002048 -0.000026 0.015991 0.000420 0.001339 -0.001359 -0.000109 -0.000020 
0.059275 0.101222 0.428811 0.002563 -0.000114 0.015738 0.000490 0.001445 -0.001434 -0.000150 -0.000007 
0.059275 0.109546 0.445806 0.003118 -0.000139 0.015299 0.000564 0.001549 -0.001496 -0.000185 0.000007 
0.059275 0.118301 0.462434 0.003707 -0.000095 0.014707 0.000643 0.001634 -0.001550 -0.000208 0.000020 
0.059275 0.127505 0.478523 0.004325 0.000020 0.014018 0.000725 0.001692 -0.001601 -0.000218 0.000030 
0.059275 0.137177 0.493842 0.004969 0.000229 0.013291 0.000808 0.001723 -0.001649 -0.000216 0.000035 
0.059275 0.147334 0.508192 0.005628 0.000564 0.012573 0.000888 0.001744 -0.001694 -0.000197 0.000035 
0.059275 0.157995 0.521468 0.006273 0.001017 0.011888 0.000962 0.001769 -0.001734 -0.000147 0.000031 
0.059275 0.169178 0.533640 0.006860 0.001510 0.011248 0.001030 0.001809 -0.001763 -0.000056 0.000024 
0.059275 0.180900 0.544684 0.007333 0.001916 0.010680 0.001095 0.001860 -0.001782 0.000070 0.000013 
0.059275 0.193181 0.554563 0.007653 0.002099 0.010205 0.001161 0.001911 -0.001798 0.000215 -0.000005 
0.059275 0.206037 0.563318 0.007825 0.001967 0.009825 0.001233 0.001949 -0.001816 0.000365 -0.000028 
0.059275 0.219486 0.571183 0.007890 0.001495 0.009492 0.001317 0.001968 -0.001838 0.000497 -0.000050 
0.059275 0.233544 0.578535 0.007892 0.000809 0.009140 0.001407 0.001972 -0.001862 0.000578 -0.000059 
0.059275 0.248227 0.585674 0.007849 0.000190 0.008757 0.001493 0.001968 -0.001881 0.000584 -0.000050 
0.059275 0.263550 0.592850 0.007771 -0.000136 0.008342 0.001565 0.001956 -0.001880 0.000528 -0.000032 
0.059275 0.279527 0.600227 0.007634 -0.000145 0.007903 0.001610 0.001940 -0.001848 0.000462 -0.000016 
0.059275 0.296171 0.607650 0.007383 0.000006 0.007479 0.001627 0.001924 -0.001788 0.000435 -0.000005 
0.059275 0.313493 0.615047 0.007005 0.000048 0.007068 0.001620 0.001917 -0.001710 0.000464 0.000003 
0.059275 0.331503 0.622776 0.006588 -0.000178 0.006617 0.001600 0.001923 -0.001617 0.000513 0.000009 
0.059275 0.350210 0.630947 0.006264 -0.000590 0.006094 0.001569 0.001958 -0.001526 0.000517 0.000017 
0.059275 0.369619 0.639234 0.006109 -0.000967 0.005547 0.001524 0.001994 -0.001454 0.000449 0.000032 
0.059275 0.389736 0.647462 0.006072 -0.001135 0.005048 0.001469 0.002000 -0.001404 0.000336 0.000054 
0.059275 0.410561 0.655643 0.006002 -0.001226 0.004649 0.001415 0.002007 -0.001371 0.000222 0.000071 
0.059275 0.432095 0.663694 0.005785 -0.001589 0.004350 0.001371 0.002011 -0.001317 0.000160 0.000084 
0.059275 0.454334 0.671575 0.005410 -0.002302 0.004160 0.001335 0.001978 -0.001234 0.000174 0.000091 
0.059275 0.477272 0.679296 0.004957 -0.002920 0.004036 0.001298 0.001890 -0.001166 0.000207 0.000090 
0.059275 0.500901 0.686802 0.004556 -0.002968 0.003921 0.001257 0.001763 -0.001124 0.000216 0.000077 
0.059275 0.525209 0.694103 0.004295 -0.002569 0.003778 0.001211 0.001631 -0.001089 0.000215 0.000058 
0.059275 0.550180 0.700923 0.004126 -0.001913 0.003632 0.001159 0.001495 -0.001049 0.000186 0.000049 
0.059275 0.575798 0.707230 0.003900 -0.001164 0.003468 0.001106 0.001362 -0.000993 0.000137 0.000052 
0.059275 0.602039 0.713215 0.003530 -0.000359 0.003283 0.001059 0.001252 -0.000923 0.000072 0.000061 
0.059275 0.628879 0.719267 0.003028 0.000518 0.003066 0.001023 0.001164 -0.000843 0.000018 0.000068 
0.059275 0.656291 0.725477 0.002449 0.001427 0.002867 0.000996 0.001079 -0.000765 -0.000009 0.000067 
0.059275 0.684242 0.731217 0.001915 0.002232 0.002748 0.000969 0.001010 -0.000712 -0.000029 0.000053 
0.059275 0.712699 0.736143 0.001524 0.002721 0.002651 0.000935 0.000963 -0.000665 -0.000022 0.000033 
0.059275 0.741623 0.740819 0.001233 0.002785 0.002505 0.000898 0.000929 -0.000610 0.000001 0.000026 
0.059275 0.770975 0.745549 0.000984 0.002667 0.002323 0.000861 0.000900 -0.000556 0.000016 0.000032 
0.059275 0.800710 0.750242 0.000775 0.002640 0.002116 0.000822 0.000875 -0.000497 0.000009 0.000041 
0.059275 0.830784 0.754760 0.000582 0.002745 0.001904 0.000780 0.000848 -0.000427 -0.000016 0.000051 
0.059275 0.861148 0.758785 0.000352 0.002848 0.001724 0.000738 0.000819 -0.000352 -0.000032 0.000057 
0.059275 0.891751 0.762274 0.000063 0.002921 0.001558 0.000699 0.000791 -0.000271 -0.000025 0.000055 
0.059275 0.922544 0.765300 -0.000267 0.003079 0.001386 0.000666 0.000771 -0.000190 -0.000017 0.000042 
0.059275 0.953472 0.767570 -0.000620 0.003348 0.001230 0.000640 0.000752 -0.000103 -0.000025 0.000025 
0.059275 0.984481 0.768919 -0.000983 0.003585 0.001125 0.000626 0.000732 -0.000006 -0.000038 0.000005 
0.059275 1.015518 0.769333 -0.001341 0.003620 0.001079 0.000629 0.000730 0.000087 -0.000035 -0.000014 
0.059275 1.046528 0.768695 -0.001675 0.003457 0.001103 0.000655 0.000748 0.000165 -0.000016 -0.000025 
0.059275 1.077456 0.767430 -0.001964 0.003204 0.001146 0.000700 0.000783 0.000226 -0.000017 -0.000038 
0.059275 1.108249 0.765967 -0.002180 0.002907 0.001146 0.000751 0.000823 0.000267 -0.000016 -0.000047 
0.059275 1.138852 0.764073 -0.002265 0.002699 0.001162 0.000789 0.000857 0.000305 -0.000018 -0.000053 
0.059275 1.169216 0.761460 -0.002180 0.002467 0.001227 0.000809 0.000876 0.000346 -0.000042 -0.000053 
0.059275 1.199290 0.758136 -0.001954 0.001997 0.001345 0.000814 0.000885 0.000390 -0.000070 -0.000038 
0.059275 1.229025 0.754521 -0.001647 0.001345 0.001478 0.000816 0.000899 0.000430 -0.000089 -0.000016 
0.059275 1.258377 0.751042 -0.001311 0.000572 0.001579 0.000821 0.000925 0.000464 -0.000097 -0.000000 
0.059275 1.287301 0.747657 -0.001038 -0.000327 0.001652 0.000833 0.000970 0.000495 -0.000085 0.000002 
0.059275 1.315758 0.744041 -0.000923 -0.001178 0.001717 0.000854 0.001025 0.000535 -0.000069 -0.000000 
0.059275 1.343709 0.739842 -0.000944 -0.001755 0.001823 0.000878 0.001071 0.000589 -0.000064 -0.000000 
0.059275 1.371121 0.735323 -0.000990 -0.001981 0.001984 0.000896 0.001103 0.000646 -0.000057 0.000004 
0.059275 1.397961 0.730861 -0.001010 -0.001930 0.002125 0.000910 0.001128 0.000685 -0.000051 0.000002 
0.059275 1.424203 0.726307 -0.001010 -0.001628 0.002184 0.000927 0.001170 0.000704 -0.000048 -0.000007 
0.059275 1.449820 0.721580 -0.000941 -0.001026 0.002213 0.000951 0.001218 0.000713 -0.000049 -0.000019 
0.059275 1.474791 0.716815 -0.000704 -0.000148 0.002258 0.000979 0.001256 0.000719 -0.000042 -0.000030 
0.059275 1.499099 0.711870 -0.000276 0.000859 0.002337 0.001007 0.001303 0.000728 -0.000036 -0.000038 
0.059275 1.522728 0.706730 0.000238 0.001706 0.002476 0.001034 0.001369 0.000746 -0.000057 -0.000043 
0.059275 1.545666 0.701522 0.000733 0.002285 0.002647 0.001061 0.001450 0.000765 -0.000102 -0.000047 
0.059275 1.567905 0.696195 0.001206 0.002621 0.002795 0.001086 0.001537 0.000791 -0.000170 -0.000051 
0.059275 1.589439 0.690699 0.001659 0.002613 0.002923 0.001108 0.001607 0.000829 -0.000232 -0.000057 
0.059275 1.610264 0.685330 0.002043 0.002255 0.003038 0.001131 0.001648 0.000878 -0.000245 -0.000061 
0.059275 1.630381 0.680290 0.002345 0.001711 0.003127 0.001156 0.001675 0.000934 -0.000210 -0.000055 
0.059275 1.649790 0.675312 0.002604 0.001071 0.003231 0.001182 0.001692 0.000986 -0.000167 -0.000040 
0.059275 1.668497 0.669880 0.002837 0.000372 0.003388 0.001205 0.001707 0.001040 -0.000158 -0.000023 
0.059275 1.686507 0.663915 0.003036 -0.000389 0.003618 0.001223 0.001739 0.001106 -0.000172 -0.000012 
0.059275 1.703829 0.657840 0.003215 -0.001171 0.003824 0.001239 0.001775 0.001159 -0.000167 -0.000010 
0.059275 1.720473 0.651602 0.003377 -0.001830 0.003974 0.001245 0.001800 0.001174 -0.000145 -0.000009 
0.059275 1.736450 0.644842 0.003465 -0.002267 0.004166 0.001236 0.001807 0.001168 -0.000122 -0.000004 
0.059275 1.751773 0.637499 0.003410 -0.002411 0.004433 0.001217 0.001796 0.001156 -0.000104 0.000003 
0.059275 1.766456 0.629600 0.003186 -0.002231 0.004756 0.001193 0.001782 0.001147 -0.000090 0.000011 
0.059275 1.780514 0.621229 0.002824 -0.001829 0.005165 0.001172 0.001784 0.001153 -0.000088 0.000017 
0.059275 1.793963 0.612762 0.002419 -0.001407 0.005678 0.001153 0.001790 0.001179 -0.000096 0.000031 
0.059275 1.806819 0.604517 0.002081 -0.001067 0.006192 0.001132 0.001796 0.001205 -0.000083 0.000057 
0.059275 1.819100 0.596229 0.001862 -0.000740 0.006662 0.001102 0.001822 0.001218 -0.000048 0.000084 
0.059275 1.830822 0.587386 0.001736 -0.000337 0.007123 0.001061 0.001861 0.001224 0.000006 0.000100 
0.059275 1.842005 0.577665 0.001652 0.000115 0.007594 0.001005 0.001890 0.001226 0.000067 0.000106 
0.059275 1.852666 0.566964 0.001566 0.000508 0.008073 0.000934 0.001894 0.001223 0.000113 0.000103 
0.059275 1.862823 0.555278 0.001457 0.000737 0.008545 0.000852 0.001866 0.001215 0.000134 0.000093 
0.059275 1.872495 0.542605 0.001333 0.000748 0.009002 0.000766 0.001806 0.001205 0.000137 0.000080 
0.059275 1.881699 0.528924 0.001220 0.000559 0.009441 0.000681 0.001723 0.001194 0.000134 0.000065 
0.059275 1.890454 0.514224 0.001149 0.000235 0.009860 0.000602 0.001629 0.001185 0.000125 0.000050 
0.059275 1.898778 0.498505 0.001140 -0.000151 0.010248 0.000529 0.001528 0.001173 0.000103 0.000037 
0.059275 1.906687 0.481747 0.001194 -0.000537 0.010587 0.000461 0.001422 0.001154 0.000064 0.000025 
0.059275 1.914200 0.463905 0.001298 -0.000880 0.010859 0.000397 0.001312 0.001125 0.000014 0.000015 
0.059275 1.921333 0.444911 0.001429 -0.001159 0.011044 0.000338 0.001204 0.001083 -0.000041 0.000007 
0.059275 1.928102 0.424685 0.001560 -0.001376 0.011129 0.000284 0.001102 0.001029 -0.000095 -0.000002 
0.059275 1.934524 0.403149 0.001668 -0.001543 0.011100 0.000237 0.001011 0.000963 -0.000147 -0.000009 
0.059275 1.940614 0.380262 0.001734 -0.001675 0.010942 0.000194 0.000932 0.000886 -0.000198 -0.000015 
0.059275 1.946387 0.356032 0.001748 -0.001780 0.010636 0.000156 0.000861 0.000798 -0.000247 -0.000019 
0.059275 1.951859 0.330536 0.001710 -0.001857 0.010163 0.000123 0.000795 0.000701 -0.000291 -0.000022 
0.059275 1.957042 0.303918 0.001623 -0.001899 0.009513 0.000094 0.000729 0.000599 -0.000325 -0.000023 
0.059275 1.961952 0.276388 0.001494 -0.001897 0.008685 0.000070 0.000660 0.000496 -0.000344 -0.000022 
0.059275 1.966600 0.248203 0.001333 -0.001845 0.007695 0.000050 0.000586 0.000395 -0.000344 -0.000020 
0.059275 1.971001 0.219655 0.001150 -0.001745 0.006573 0.000034 0.000507 0.000300 -0.000327 -0.000017 
0.059275 1.975165 0.191053 0.000955 -0.001602 0.005367 0.000022 0.000425 0.000215 -0.000294 -0.000013 
0.059275 1.979105 0.162704 0.000757 -0.001425 0.004143 0.000013 0.000342 0.000143 -0.000248 -0.000009 
0.059275 1.982832 0.134902 0.000568 -0.001222 0.002983 0.000007 0.000261 0.000087 -0.000195 -0.000006 
0.059275 1.986357 0.107902 0.000396 -0.001005 0.001967 0.000003 0.000185 0.000047 -0.000140 -0.000003 
0.059275 1.989690 0.081904 0.000249 -0.000780 0.001151 0.000001 0.000118 0.000021 -0.000090 -0.000002 
0.059275 1.992840 0.057043 0.000133 -0.000553 0.000561 0.000000 0.000064 0.000007 -0.000047 -0.000001 
0.059275 1.995818 0.033384 0.000052 -0.000329 0.000192 0.000000 0.000024 0.000002 -0.000018 -0.000000 
0.059275 1.998633 0.010937 0.000011 -0.000109 0.000021 0.000000 0.000003 0.000000 -0.000002 -0.000000 
0.098792 0.001367 0.008428 0.000004 -0.000023 0.000014 0.000000 0.000003 -0.000000 0.000000 0.000000 
0.098792 0.004182 0.025713 0.000018 -0.000088 0.000126 0.000000 0.000021 -0.000000 0.000000 0.000000 
0.098792 0.007160 0.043922 0.000049 -0.000173 0.000368 0.000000 0.000054 -0.000002 0.000000 0.000000 
0.098792 0.010310 0.063073 0.000096 -0.000278 0.000760 0.000001 0.000098 -0.000006 0.000000 0.000000 
0.098792 0.013643 0.083171 0.000163 -0.000404 0.001322 0.000002 0.000152 -0.000013 0.000001 0.000000 
0.098792 0.017168 0.104189 0.000251 -0.000548 0.002069 0.000004 0.000211 -0.000027 0.000002 0.000001 
0.098792 0.020895 0.126066 0.000362 -0.000708 0.003011 0.000007 0.000276 -0.000050 0.000006 0.000002 
0.098792 0.024835 0.148695 0.000500 -0.000876 0.004140 0.000012 0.000343 -0.000083 0.000013 0.000003 
0.098792 0.028999 0.171920 0.000668 -0.001046 0.005431 0.000019 0.000412 -0.000130 0.000024 0.000005 
0.098792 0.033400 0.195542 0.000869 -0.001206 0.006834 0.000028 0.000484 -0.000191 0.000043 0.000007 
0.098792 0.038048 0.219331 0.001107 -0.001349 0.008286 0.000041 0.000558 -0.000268 0.000070 0.000010 
0.098792 0.042958 0.243046 0.001384 -0.001469 0.009713 0.000056 0.000637 -0.000359 0.000105 0.000013 
0.098792 0.048141 0.266467 0.001700 -0.001565 0.011046 0.000074 0.000721 -0.000463 0.000144 0.000016 
0.098792 0.053613 0.289408 0.002051 -0.001642 0.012227 0.000096 0.000812 -0.000579 0.000182 0.000020 
0.098792 0.059386 0.311737 0.002432 -0.001709 0.013218 0.000123 0.000907 -0.000705 0.000208 0.000022 
0.098792 0.065476 0.333368 0.002832 -0.001774 0.013999 0.000153 0.001006 -0.000841 0.000214 0.000023 
0.098792 0.071898 0.354245 0.003240 -0.001846 0.014569 0.000189 0.001104 -0.000983 0.000195 0.000021 
0.098792 0.078667 0.374325 0.003644 -0.001924 0.014940 0.000232 0.001200 -0.001129 0.000147 0.000016 
0.098792 0.085800 0.393573 0.004034 -0.002003 0.015139 0.000283 0.001293 -0.001272 0.000077 0.000008 
0.098792 0.093313 0.411966 0.004408 -0.002064 0.015193 0.000344 0.001385 -0.001406 -0.000005 -0.000001 
0.098792 0.101222 0.429503 0.004767 -0.002081 0.015130 0.000418 0.001478 -0.001524 -0.000088 -0.000008 
0.098792 0.109546 0.446205 0.005113 -0.002037 0.014972 0.000504 0.001566 -0.001624 -0.000160 -0.000008 
0.098792 0.118301 0.462079 0.005447 -0.001923 0.014729 0.000600 0.001638 -0.001709 -0.000211 0.000001 
0.098792 0.127505 0.477104 0.005761 -0.001732 0.014391 0.000701 0.001687 -0.001783 -0.000241 0.000022 
0.098792 0.137177 0.491276 0.006047 -0.001435 0.013938 0.000804 0.001718 -0.001846 -0.000250 0.000052 
0.098792 0.147334 0.504662 0.006308 -0.000996 0.013349 0.000903 0.001744 -0.001898 -0.000238 0.000081 
0.098792 0.157995 0.517355 0.006557 -0.000415 0.012647 0.000999 0.001778 -0.001939 -0.000201 0.000098 
0.098792 0.169178 0.529373 0.006814 0.000246 0.011915 0.001089 0.001826 -0.001970 -0.000137 0.000097 
0.098792 0.180900 0.540603 0.007085 0.000874 0.011242 0.001173 0.001888 -0.001990 -0.000041 0.000076 
0.098792 0.193181 0.550880 0.007351 0.001323 0.010653 0.001250 0.001953 -0.001997 0.000081 0.000039 
0.098792 0.206037 0.560119 0.007567 0.001448 0.010125 0.001319 0.002002 -0.001993 0.000216 -0.000003 
0.098792 0.219486 0.568409 0.007687 0.001210 0.009648 0.001377 0.002022 -0.001980 0.000346 -0.000038 
0.098792 0.233544 0.576015 0.007691 0.000744 0.009247 0.001426 0.002014 -0.001950 0.000444 -0.000055 
0.098792 0.248227 0.583116 0.007609 0.000299 0.008953 0.001468 0.001991 -0.001906 0.000487 -0.000044 
0.098792 0.263550 0.590080 0.007501 0.000073 0.008636 0.001505 0.001968 -0.001841 0.000462 -0.000012 
0.098792 0.279527 0.597617 0.007445 0.000082 0.008141 0.001538 0.001951 -0.001765 0.000397 0.000021 