VARIABLES = Z,Y,U,V,W,T,UU,VV,WW,UV,UW,VW,TT,UT,VT,WT 
ZONE I = 66 J = 65 
 0.0000000000  3.1250000000  0.0000000000  0.0000000000  0.0000000000 267.1730468750  0.0000000000  0.0000000000  0.0012890663  0.0000000000  0.0000000000  0.0000000000  0.0000000002  0.0000000000  0.0000000000  0.0000000001  
 3.1250000000  3.1250000000  1.9051962046  1.4541312585 -0.0000192108 267.5488882212  0.0614080356  0.0469862461  0.0106703749  0.0250869164 -0.0078326775 -0.0050543377  0.0006656972  0.0039388331  0.0030452676 -0.0007800370  
 9.3750000000  3.1250000000  2.6108489990  1.9505045964  0.0002047055 267.6128605769  0.1642115813  0.1102400853  0.0246766384  0.0752342371 -0.0286567119 -0.0183983601  0.0014890893  0.0112900477  0.0085014747 -0.0031525681  
15.6250000000  3.1250000000  3.2985569881  2.3879563552  0.0004303222 267.6816406250  0.2641500620  0.1627506109  0.0378799475  0.1094773146 -0.0464624625 -0.0277891929  0.0032209220  0.0216659454  0.0163836241 -0.0058800335  
21.8750000000  3.1250000000  3.7197110690  2.6161029522  0.0004402620 267.7352163462  0.2579522940  0.1654133136  0.0468049086  0.0880039142 -0.0446618740 -0.0234665320  0.0041714022  0.0234425325  0.0173915386 -0.0065551483  
28.1250000000  3.1250000000  4.0764977088  2.7877115103  0.0002097989 267.7815204327  0.2523440728  0.1637833962  0.0517296241  0.0718631964 -0.0441547064 -0.0210250433  0.0047185416  0.0240235897  0.0174943649 -0.0067443357  
34.3750000000  3.1250000000  4.3817279522  2.9133676382 -0.0000362942 267.8232271635  0.2362141242  0.1530707873  0.0531604620  0.0551448198 -0.0421207171 -0.0184302587  0.0050581538  0.0233276771  0.0168346643 -0.0067243865  
40.6250000000  3.1250000000  4.6594111516  3.0119056115 -0.0001310643 267.8619591346  0.2245851663  0.1392007241  0.0528222414  0.0434925630 -0.0405391143 -0.0157763848  0.0053424725  0.0229518047  0.0159770379 -0.0066466882  
46.8750000000  3.1250000000  4.9164527306  3.1017279992  0.0000291037 267.8985877404  0.2080547333  0.1265047073  0.0516568111  0.0340855892 -0.0379546679 -0.0137768241  0.0055921784  0.0223996272  0.0150430533 -0.0064475532  
53.1250000000  3.1250000000  5.1552471454  3.1821314885  0.0002132158 267.9343149038  0.1915536000  0.1143700380  0.0497283826  0.0252908010 -0.0349550907 -0.0122151173  0.0057367398  0.0213140488  0.0137671773 -0.0060803368  
59.3750000000  3.1250000000  5.3837993915  3.2438389705  0.0004644149 267.9695012019  0.1774448248  0.1064100486  0.0472287618  0.0175483575 -0.0319940310 -0.0099758827  0.0059733748  0.0206642298  0.0128045990 -0.0057876275  
65.6250000000  3.1250000000  5.6122004582  3.2965489314  0.0007507260 268.0047776442  0.1658001386  0.0974718534  0.0441815670  0.0122487004 -0.0301392739 -0.0069308661  0.0062326165  0.0201205034  0.0121534247 -0.0055903132  
71.8750000000  3.1250000000  5.8298325759  3.3434830886  0.0005554777 268.0406850962  0.1561420294  0.0900338393  0.0411700322  0.0082625637 -0.0282121768 -0.0052407833  0.0066738541  0.0198440222  0.0117886507 -0.0054945634  
78.1250000000  3.1250000000  6.0425457294  3.3769066444  0.0004792448 268.0776141827  0.1496404795  0.0833057770  0.0382580904  0.0069317382 -0.0257933873 -0.0040578585  0.0071756551  0.0200880399  0.0115819042 -0.0053207783  
84.3750000000  3.1250000000  6.2587209848  3.3935889611  0.0003736164 268.1162560096  0.1439818015  0.0761472555  0.0351019676  0.0051625270 -0.0232029438 -0.0024194821  0.0077723191  0.0209783517  0.0114896563 -0.0051515396  
90.6250000000  3.1250000000  6.4803865873  3.3985483023  0.0003436962 268.1563100962  0.1352847906  0.0706604371  0.0320625122  0.0016256706 -0.0202990624 -0.0010177483  0.0082779270  0.0211806224  0.0103591946 -0.0048400861  
96.8750000000  3.1250000000  6.7055269681  3.3924692007  0.0003426324 268.1987079327  0.1268951269  0.0649699431  0.0292552765 -0.0026537820 -0.0175829942 -0.0002676027  0.0085289552  0.0211573564  0.0097632821 -0.0044047076  
103.1250000000  3.1250000000  6.9327514648  3.3687950721  0.0004374147 268.2435096154  0.1191415933  0.0603649543  0.0268230805 -0.0069016154 -0.0151529551  0.0006759999  0.0086133141  0.0209603016  0.0088948314 -0.0039312991  
109.3750000000  3.1250000000  7.1671288123  3.3273357685  0.0005008412 268.2911658654  0.1087696149  0.0563192734  0.0246964216 -0.0086179742 -0.0130090640  0.0019913268  0.0088108613  0.0203541921  0.0077826344 -0.0035737824  
115.6250000000  3.1250000000  7.4104694073  3.2688281720  0.0005513454 268.3447115385  0.0991331027  0.0528480823  0.0227466161 -0.0109258844 -0.0118116746  0.0026166265  0.0091156666  0.0199557268  0.0085483955 -0.0033908764  
121.8750000000  3.1250000000  7.6534747784  3.1841479962  0.0004823534 268.4030048077  0.0911814029  0.0504039214  0.0208332465 -0.0153586388 -0.0108058792  0.0027597200  0.0097008320  0.0198362717  0.0072888186 -0.0032074504  
128.1250000000  3.1250000000  7.8939058744  3.0696908804  0.0002756182 268.4669471154  0.0785699257  0.0491311954  0.0187563749 -0.0183346932 -0.0091229934  0.0024418521  0.0101621325  0.0185602555  0.0043591192 -0.0027445190  
134.3750000000  3.1250000000  8.1233717698  2.9300159161  0.0002256838 268.5364783654  0.0658525247  0.0467657896  0.0169501800 -0.0190493052 -0.0072615183  0.0023673019  0.0105529950  0.0167673349  0.0023033156 -0.0025043662  
140.6250000000  3.1250000000  8.3404522236  2.7645888108  0.0001346642 268.6107872596  0.0527390040  0.0465870197  0.0157012756 -0.0194008864 -0.0057101254  0.0021259514  0.0108747106  0.0144402568  0.0001918100 -0.0021152666  
146.8750000000  3.1250000000  8.5374183068  2.5597426194  0.0001345673 268.6936598558  0.0434145891  0.0494896925  0.0148678899 -0.0207525712 -0.0041754759  0.0015199780  0.0117021717  0.0130945105 -0.0021800789 -0.0016829075  
153.1250000000  3.1250000000  8.7048950195  2.3106076754  0.0001455419 268.7872596154  0.0315643201  0.0524068062  0.0143178316 -0.0185551313 -0.0025839262  0.0010676492  0.0123724002  0.0104090168 -0.0050235840 -0.0012374783  
159.3750000000  3.1250000000  8.8336162861  2.0123633752  0.0002880246 268.8986778846  0.0214479061  0.0550627415  0.0138249269 -0.0128424819 -0.0017844114  0.0009946948  0.0133704635  0.0072702633 -0.0045763699 -0.0009337932  
165.6250000000  3.1250000000  8.9033212515  1.6716278076  0.0002075454 269.0280649038  0.0139999344  0.0545244290  0.0127090106 -0.0035412747 -0.0012512535  0.0007247426  0.0139124421  0.0024002192 -0.0045461389 -0.0007430953  
171.8750000000  3.1250000000  8.8867056040  1.3192609347  0.0002096909 269.1637019231  0.0132512927  0.0458962110  0.0107956905  0.0078428369 -0.0008307419  0.0003894792  0.0131732409 -0.0036588910 -0.0132688366 -0.0005579002  
178.1250000000  3.1250000000  8.7739868164  0.9808172960  0.0002215884 269.3054987981  0.0167300664  0.0364346174  0.0088750711  0.0147147224 -0.0004835646  0.0005377776  0.0126357189 -0.0082555863 -0.0113285248 -0.0004785705  
184.3750000000  3.1250000000  8.5832791842  0.6615131085 -0.0000767835 269.4690805288  0.0193980510  0.0270260774  0.0073225879  0.0167550967 -0.0002167221  0.0001466269  0.0141960795 -0.0120911983 -0.0078971450 -0.0002334639  
190.6250000000  3.1250000000  8.3579420823  0.3589292380 -0.0002094808 269.6835637019  0.0168771175  0.0169829882  0.0060107199  0.0126582118 -0.0003869761 -0.0002087854  0.0154334655 -0.0130368572 -0.0170365664  0.0002594655  
196.8750000000  3.1250000000  8.1652221680  0.1151080572  0.0000225949 269.9306189904  0.0094038037  0.0067461802  0.0049023986  0.0053933740 -0.0002891632 -0.0000354096  0.0117404131 -0.0084709048 -0.0045987725  0.0001503525  
203.1250000000  3.1250000000  8.0657724234 -0.0218556331  0.0000738768 270.1328425481  0.0039457596  0.0016577276  0.0039921334  0.0008065699 -0.0002666533  0.0000453058  0.0055403829 -0.0028554607  0.0010125537  0.0001286080  
209.3750000000  3.1250000000  8.0614276593 -0.0542611085  0.0000566105 270.2557992788  0.0020819437  0.0012295615  0.0032664285 -0.0001060059 -0.0002521779  0.0001084794  0.0014416381 -0.0003909690  0.0015098906  0.0000941712  
215.6250000000  3.1250000000  8.1015474760 -0.0259263589  0.0001439374 270.3139122596  0.0014961198  0.0014336195  0.0027129311 -0.0000682262 -0.0002490475  0.0001342008  0.0002800556 -0.0000389446  0.0014886680  0.0000485537  
221.8750000000  3.1250000000  8.1330632136  0.0062639622  0.0001998027 270.3495192308  0.0013615191  0.0009868615  0.0022856829 -0.0001542649 -0.0002581846  0.0001129073  0.0002216761 -0.0001137135  0.0016549359  0.0000362760  
228.1250000000  3.1250000000  8.1375112680  0.0156770669  0.0002129624 270.3981971154  0.0013879324  0.0005839785  0.0019438404 -0.0001205514 -0.0002649794  0.0000807014  0.0004704127 -0.0002898453  0.0006919055  0.0000544802  
234.3750000000  3.1250000000  8.1262704703  0.0087661074  0.0002341926 270.4652043269  0.0013195213  0.0004265293  0.0016693894 -0.0000531448 -0.0002644672  0.0000706235  0.0006413139 -0.0003565474  0.0000755299  0.0000639576  
240.6250000000  3.1250000000  8.1182091346  0.0016139853  0.0002553128 270.5365084135  0.0011494493  0.0003669138  0.0014498120 -0.0000325361 -0.0002601670  0.0000724048  0.0005718743 -0.0002560160  0.0000760983  0.0000603201  
246.8750000000  3.1250000000  8.1191077599  0.0006950236  0.0002383557 270.6024338942  0.0010069854  0.0003443051  0.0012707495 -0.0000105803 -0.0002558641  0.0000710646  0.0004537514 -0.0001603573  0.0000386874  0.0000560374  
253.1250000000  3.1250000000  8.1228280874  0.0029731104  0.0002425378 270.6645733173  0.0009162227  0.0003028321  0.0011201715 -0.0000116111 -0.0002559740  0.0000634831  0.0004045721 -0.0001301723  0.0006554498  0.0000546183  
259.3750000000  3.1250000000  8.1238487831  0.0041333130  0.0002413081 270.7262920673  0.0008812195  0.0002586021  0.0009894118 -0.0000049833 -0.0002596858  0.0000571859  0.0004069957 -0.0001403758  0.0007996416  0.0000574933  
265.6250000000  3.1250000000  8.1226421650  0.0034792506  0.0002043188 270.7896334135  0.0008800519  0.0002330728  0.0008735794  0.0000189991 -0.0002636864  0.0000574246  0.0004057836 -0.0001442835  0.0000842335  0.0000592329  
271.8750000000  3.1250000000  8.1217632587  0.0027775430  0.0001723172 270.8530649038  0.0008482809  0.0002020405  0.0007709986  0.0000260700 -0.0002648496  0.0000588657  0.0003958446 -0.0001201691 -0.0004318997  0.0000585870  
278.1250000000  3.1250000000  8.1221604567  0.0026548422  0.0001886706 270.9164663462  0.0007688572  0.0001768270  0.0006791474  0.0000197796 -0.0002629221  0.0000572664  0.0003811232 -0.0001087294 -0.0002500919  0.0000562111  
284.3750000000  3.1250000000  8.1230384240  0.0027041965  0.0002067069 270.9809194712  0.0007101798  0.0001681339  0.0005933457  0.0000202223 -0.0002589062  0.0000554233  0.0003593454 -0.0001205800  0.0006517992  0.0000532837  
290.6250000000  3.1250000000  8.1228158804  0.0029781502  0.0001801053 271.0471754808  0.0006829476  0.0001639111  0.0005069808  0.0000207101 -0.0002528786  0.0000551946  0.0003492822 -0.0001377176  0.0010957544  0.0000530974  
296.8750000000  3.1250000000  8.1204317533  0.0033113743  0.0001689190 271.1134915865  0.0006804940  0.0001537594  0.0004167918  0.0000154050 -0.0002471170  0.0000553020  0.0003242350 -0.0001618326  0.0006688860  0.0000525499  
303.1250000000  3.1250000000  8.1167245718  0.0027343956  0.0001803993 271.1777644231  0.0007142591  0.0001405612  0.0003256687  0.0000186107 -0.0002421722  0.0000520295  0.0002567079 -0.0001585098  0.0000690395  0.0000428473  
309.3750000000  3.1250000000  8.1168719952  0.0013276656  0.0001589431 271.2376802885  0.0006874762  0.0001214788  0.0002394110  0.0000091479 -0.0002132156  0.0000470202  0.0001735542 -0.0001233066  0.0000917987  0.0000137813  
315.6250000000  3.1250000000  8.1196223332  0.0007939084  0.0001384543 271.2984375000  0.0005796727  0.0001002951  0.0001665358 -0.0000086158 -0.0001572300  0.0000411311  0.0001115667 -0.0000925867  0.0000790018 -0.0000109628  
321.8750000000  3.1250000000  8.1215388371  0.0005873857  0.0001237998 271.3614783654  0.0004315854  0.0000771562  0.0001122523 -0.0000136853 -0.0000976919  0.0000312328  0.0000600150 -0.0000625175 -0.0000008885 -0.0000203352  
328.1250000000  3.1250000000  8.1224722055  0.0003627285  0.0001056518 271.4249399038  0.0002966648  0.0000563896  0.0000750550 -0.0000119367 -0.0000546905  0.0000206105  0.0000282585 -0.0000364754 -0.0000512563 -0.0000185105  
334.3750000000  3.1250000000  8.1228468675  0.0002090768  0.0000879678 271.4884314904  0.0001974485  0.0000409127  0.0000502632 -0.0000088260 -0.0000293713  0.0000126911  0.0000131578 -0.0000201902 -0.0000664853 -0.0000135881  
340.6250000000  3.1250000000  8.1229839618  0.0001269018  0.0000726608 271.5518930288  0.0001314942  0.0000296846  0.0000337148 -0.0000061745 -0.0000154882  0.0000075901  0.0000063457 -0.0000111908 -0.0000633138 -0.0000091889  
346.8750000000  3.1250000000  8.1230384240  0.0000822480  0.0000599355 271.6153545673  0.0000889877  0.0000215704  0.0000225544 -0.0000042849 -0.0000080344  0.0000044606  0.0000031832 -0.0000063185 -0.0000529902 -0.0000059778  
353.1250000000  3.1250000000  8.1230600210  0.0000563083  0.0000493145 271.6788461538  0.0000617430  0.0000158023  0.0000149405 -0.0000030058 -0.0000040992  0.0000025951  0.0000016489 -0.0000036602 -0.0000420694 -0.0000037912  
359.3750000000  3.1250000000  8.1230712891  0.0000405215  0.0000402889 271.7423076923  0.0000442407  0.0000117782  0.0000096937 -0.0000021531 -0.0000020592  0.0000015065  0.0000008746 -0.0000021827 -0.0000327009 -0.0000023491  
365.6250000000  3.1250000000  8.1230750451  0.0000305931  0.0000324546 271.8057692308  0.0000329316  0.0000090124  0.0000060564 -0.0000015882 -0.0000010242  0.0000008798  0.0000004699 -0.0000013385 -0.0000251255 -0.0000014131  
371.8750000000  3.1250000000  8.1230741061  0.0000242213  0.0000255027 271.8692307692  0.0000255877  0.0000071346  0.0000035414 -0.0000012156 -0.0000005176  0.0000005217  0.0000002514 -0.0000008382 -0.0000190554 -0.0000008107  
378.1250000000  3.1250000000  8.1230769231  0.0000201236  0.0000191919 271.9326923077  0.0000208343  0.0000058804  0.0000018364 -0.0000009724 -0.0000002889  0.0000003180  0.0000001302 -0.0000005277 -0.0000141240 -0.0000004266  
384.3750000000  3.1250000000  8.1230778621  0.0000175787  0.0000133250 271.9961538462  0.0000178348  0.0000050716  0.0000007458 -0.0000008182 -0.0000002069  0.0000002022  0.0000000618 -0.0000003227 -0.0000100013 -0.0000001881  
390.6250000000  3.1250000000  8.1230778621  0.0000160896  0.0000077375 272.0596153846  0.0000161041  0.0000045970  0.0000001556 -0.0000007286 -0.0000002027  0.0000001353  0.0000000237 -0.0000001751 -0.0000064099 -0.0000000514  
396.8750000000  3.1250000000  8.1230778621  0.0000158800  0.0000022714 272.1230769231  0.0000153476  0.0000043857  0.0000000075 -0.0000006887 -0.0000001069  0.0000000552  0.0000000048 -0.0000000553 -0.0000019019 -0.0000000045  
403.1250000000  3.1250000000  8.1230769231  0.0000000000  0.0000000000 272.1865384615  0.0000000000  0.0000000000  0.0000000000  0.0000000000  0.0000000000  0.0000000000  0.0000000000  0.0000000000  0.0000000000  0.0000000000  
 0.0000000000  9.3750000000  0.0000000000  0.0000000000  0.0000000000 267.1730468750  0.0000000000  0.0000000000  0.0012917473  0.0000000000  0.0000000000  0.0000000000  0.0000000002  0.0000000000  0.0000000000 -0.0000000000  
 3.1250000000  9.3750000000  1.9052246094  1.4541456956  0.0000000203 267.5488882212  0.0615712092  0.0470683098  0.0106849432  0.0250854419 -0.0078827161 -0.0050607420  0.0006688640  0.0039656767  0.0030661349 -0.0007838317  
 9.3750000000  9.3750000000  2.6107126089  1.9502939078  0.0002811075 267.6128906250  0.1645338205  0.1101517971  0.0246988755  0.0751485091 -0.0287440062 -0.0184448242  0.0014926000  0.0113319920  0.0085186912 -0.0031639491  
15.6250000000  9.3750000000  3.2983912541  2.3877535306  0.0005202767 267.6815805288  0.2647519919  0.1624754539  0.0379100506  0.1094504943 -0.0465343072 -0.0277860275  0.0032206038  0.0217138070  0.0163699333 -0.0058804732  
21.8750000000  9.3750000000  3.7194702148  2.6159637451  0.0004939045 267.7350961538  0.2582481678  0.1653216289  0.0468464815  0.0878095187 -0.0446651165 -0.0234609769  0.0041663514  0.0234596913  0.0173387564 -0.0065408895  
28.1250000000  9.3750000000  4.0762197641  2.7879577637  0.0002795701 267.7814903846  0.2522590931  0.1635328586  0.0517684790  0.0716875076 -0.0441714287 -0.0209509299  0.0047213829  0.0240160374  0.0174574393 -0.0067568884  
34.3750000000  9.3750000000  4.3818922776  2.9136206994  0.0000706334 267.8232872596  0.2362719903  0.1529667194  0.0531576633  0.0550945355 -0.0421813781 -0.0183969736  0.0050568269  0.0232832175  0.0168039487 -0.0067370772  
40.6250000000  9.3750000000  4.6594801683  3.0120469313 -0.0001078830 267.8619591346  0.2250295492  0.1391641764  0.0528013413  0.0434754922 -0.0406201216 -0.0157517800  0.0053389824  0.0229368907  0.0159867268 -0.0066595504  
46.8750000000  9.3750000000  4.9159841684  3.1016265869 -0.0000392676 267.8985877404  0.2083307853  0.1263948000  0.0516553732  0.0340125377 -0.0379931230 -0.0138064834  0.0055949266  0.0223988496  0.0150220064 -0.0064585736  
53.1250000000  9.3750000000  5.1547457181  3.1818861741  0.0001456664 267.9342247596  0.1916125811  0.1145274676  0.0496945821  0.0252758044 -0.0349222733 -0.0122415928  0.0057475163  0.0213411496  0.0137482075 -0.0060684337  
59.3750000000  9.3750000000  5.3835477389  3.2436025766  0.0004053716 267.9695312500  0.1775641221  0.1066608576  0.0471604494  0.0176925512 -0.0319589468 -0.0100362548  0.0059793880  0.0206903641  0.0128465808 -0.0057588453  
65.6250000000  9.3750000000  5.6121060885  3.2963860145  0.0006520962 268.0048377404  0.1659905654  0.0974095124  0.0441398217  0.0123293785 -0.0301175851 -0.0070449068  0.0062393652  0.0201512850  0.0122187376 -0.0055720238  
71.8750000000  9.3750000000  5.8297386756  3.3436568040  0.0004985180 268.0407451923  0.1561256702  0.0899765675  0.0411067669  0.0081256298 -0.0281274080 -0.0053099793  0.0066834317  0.0198536708  0.0118481251 -0.0054775151  
78.1250000000  9.3750000000  6.0424574632  3.3770564153  0.0004164424 268.0776442308  0.1494522535  0.0833021311  0.0381883144  0.0068056180 -0.0257597043 -0.0040398731  0.0071776216  0.0200410329  0.0116051628 -0.0053096079  
84.3750000000  9.3750000000  6.2584477351  3.3936152532  0.0002840868 268.1162259615  0.1439201795  0.0761120283  0.0350296607  0.0051930583 -0.0232063147 -0.0023975189  0.0077737882  0.0209428109  0.0114381515 -0.0051359227  
90.6250000000  9.3750000000  6.4801983173  3.3986546443  0.0002735574 268.1562199519  0.1353224094  0.0707076880  0.0319797002  0.0016402639 -0.0203025726 -0.0010133944  0.0082753310  0.0211537581  0.0103109075 -0.0048125079  
96.8750000000  9.3750000000  6.7055110051  3.3925203764  0.0002885072 268.1987379808  0.1268760534  0.0649961912  0.0291498789 -0.0027775787 -0.0175554807 -0.0002246019  0.0085265490  0.0211343160  0.0097103660 -0.0043734720  
103.1250000000  9.3750000000  6.9327885554  3.3686727671  0.0004314028 268.2435096154  0.1191770700  0.0603398360  0.0267235352 -0.0069652736 -0.0151056831  0.0007630059  0.0086291295  0.0209465650  0.0088389718 -0.0039018040  
109.3750000000  9.3750000000  7.1672086276  3.3272294265  0.0005339018 268.2911658654  0.1088483077  0.0561589718  0.0246308308 -0.0085818703 -0.0130022838  0.0020806682  0.0088268491  0.0203528478  0.0077842419 -0.0035652956  
115.6250000000  9.3750000000  7.4106567383  3.2688133827  0.0005914642 268.3446514423  0.0991171763  0.0528044627  0.0226970049 -0.0109620204 -0.0117945020  0.0026753318  0.0091222635  0.0199437893  0.0085549877 -0.0033831003  
121.8750000000  9.3750000000  7.6534559983  3.1842109093  0.0004937712 268.4030348558  0.0911944023  0.0504793607  0.0207736510 -0.0155066380 -0.0107764528  0.0027658932  0.0097120487  0.0198520844  0.0072402358 -0.0031905587  
128.1250000000  9.3750000000  7.8936579778  3.0697906494  0.0002497571 268.4669170673  0.0786278945  0.0492305792  0.0187106077 -0.0184009112 -0.0091007058  0.0024044773  0.0101517375  0.0185791107  0.0041408190 -0.0027193482  
134.3750000000  9.3750000000  8.1233501728  2.9300375131  0.0001940296 268.5363882212  0.0659709197  0.0467722453  0.0169148317 -0.0190291258 -0.0072485672  0.0023349402  0.0105565365  0.0167924037  0.0021823101 -0.0024881246  
140.6250000000  9.3750000000  8.3404099684  2.7646716778  0.0001275382 268.6106971154  0.0527938549  0.0466381623  0.0156627343 -0.0194889710 -0.0056771411  0.0020964927  0.0108874734  0.0144935085 -0.0001185366 -0.0021026320  
146.8750000000  9.3750000000  8.5372699444  2.5597543570  0.0001477490 268.6935096154  0.0434401329  0.0494733297  0.0148290295 -0.0207892766 -0.0041535978  0.0015257347  0.0117089244  0.0131176481 -0.0024283641 -0.0016750677  
153.1250000000  9.3750000000  8.7048621544  2.3106187087  0.0001745722 268.7872295673  0.0316116186  0.0522326579  0.0142843127 -0.0184948004 -0.0025787697  0.0011034518  0.0123796839  0.0104237841 -0.0052228377 -0.0012635317  
159.3750000000  9.3750000000  8.8336923453  2.0122309758  0.0003247229 268.8985576923  0.0214174894  0.0550193090  0.0137727242 -0.0128288893 -0.0018229221  0.0010208993  0.0133105150  0.0072949753 -0.0047327454 -0.0009520431  
165.6250000000  9.3750000000  8.9034076397  1.6717428354  0.0002347278 269.0277944712  0.0139148666  0.0543806626  0.0126286397 -0.0035785315 -0.0012670301  0.0007084033  0.0138678963  0.0024336267 -0.0051619860 -0.0007141133  
171.8750000000  9.3750000000  8.8868661734  1.3192687988  0.0002550661 269.1636418269  0.0131408921  0.0457631258  0.0107228297  0.0077167566 -0.0008396459  0.0004273929  0.0131126972 -0.0035933357 -0.0135281682 -0.0005098230  
178.1250000000  9.3750000000  8.7741107647  0.9808174720  0.0002094677 269.3055588942  0.0165087205  0.0364211376  0.0088233113  0.0145957580 -0.0004816850  0.0005583063  0.0125704518 -0.0081143086 -0.0111172502 -0.0004773761  
184.3750000000  9.3750000000  8.5835730919  0.6618138827 -0.0000836412 269.4686298077  0.0193173794  0.0267084690  0.0072769596  0.0166089003 -0.0002555926  0.0001384201  0.0141152602 -0.0120090503 -0.0091932838 -0.0001967302  
190.6250000000  9.3750000000  8.3581993690  0.3590645423 -0.0001550983 269.6830228365  0.0166668250  0.0168198769  0.0059825264  0.0125368439 -0.0004073500 -0.0001907830  0.0152056346 -0.0128370368 -0.0186311263  0.0002734312  
196.8750000000  9.3750000000  8.1649019681  0.1148768572 -0.0000334070 269.9310096154  0.0093346394  0.0066518302  0.0048881343  0.0053470222 -0.0002741013 -0.0000250798  0.0117031345 -0.0084484577 -0.0030762920  0.0001385270  
203.1250000000  9.3750000000  8.0656775841 -0.0219063612  0.0000195418 270.1328425481  0.0039282313  0.0016438073  0.0039734905  0.0008050837 -0.0002635368  0.0000469898  0.0055246156 -0.0028373014  0.0011081834  0.0001295836  
209.3750000000  9.3750000000  8.0614886944 -0.0542433922 -0.0000420399 270.2558894231  0.0020724721  0.0012285868  0.0032446146 -0.0000996431 -0.0002462464  0.0001069489  0.0014344547 -0.0003845751  0.0017232721  0.0000906370  
215.6250000000  9.3750000000  8.1015042819 -0.0260128920  0.0000800474 270.3138822115  0.0014872858  0.0014259875  0.0026909397 -0.0000668432 -0.0002450852  0.0001296179  0.0002785947 -0.0000387697  0.0015537590  0.0000468052  
221.8750000000  9.3750000000  8.1328218900  0.0062090887  0.0001405217 270.3495192308  0.0013537638  0.0009891064  0.0022637264 -0.0001444532 -0.0002512318  0.0001102615  0.0002190515 -0.0001135803  0.0014719314  0.0000347070  
228.1250000000  9.3750000000  8.1372267503  0.0156649094  0.0001470391 270.3981971154  0.0013772738  0.0005837383  0.0019226329 -0.0001129640 -0.0002564928  0.0000791355  0.0004656571 -0.0002879067  0.0005904661  0.0000529350  
234.3750000000  9.3750000000  8.1259483924  0.0087458253  0.0001861993 270.4652343750  0.0013159248  0.0004246547  0.0016505502 -0.0000478291 -0.0002574806  0.0000686343  0.0006359016 -0.0003544290  0.0002447486  0.0000635630  
240.6250000000  9.3750000000  8.1178786058  0.0015935741  0.0002415654 270.5365084135  0.0011504215  0.0003623801  0.0014341605 -0.0000287059 -0.0002543672  0.0000705193  0.0005672561 -0.0002543162  0.0002424158  0.0000605314  
246.8750000000  9.3750000000  8.1188194862  0.0007124008  0.0002099564 270.6024338942  0.0010082875  0.0003399987  0.0012578636 -0.0000072935 -0.0002509501  0.0000701542  0.0004515877 -0.0001559872  0.0000736459  0.0000562425  
253.1250000000  9.3750000000  8.1226459210  0.0029692088  0.0001892982 270.6645733173  0.0009124897  0.0003009943  0.0011086267 -0.0000078169 -0.0002525062  0.0000631740  0.0004044735 -0.0001250471  0.0007070655  0.0000541805  
259.3750000000  9.3750000000  8.1237999549  0.0041348150  0.0002112126 270.7263221154  0.0008738057  0.0002569265  0.0009781029 -0.0000016921 -0.0002568078  0.0000567277  0.0004045051 -0.0001381530  0.0010306811  0.0000562107  
265.6250000000  9.3750000000  8.1226853591  0.0035165303  0.0001867777 270.7896634615  0.0008740622  0.0002293281  0.0008632764  0.0000209036 -0.0002604344  0.0000573352  0.0004024903 -0.0001432087  0.0003169928  0.0000586091  
271.8750000000  9.3750000000  8.1218318059  0.0028098260  0.0001447971 270.8530949519  0.0008433258  0.0001975391  0.0007627190  0.0000264344 -0.0002608251  0.0000589534  0.0003939365 -0.0001178871 -0.0002937097  0.0000585250  
278.1250000000  9.3750000000  8.1222139799  0.0026387288  0.0001545553 270.9164663462  0.0007624783  0.0001743791  0.0006726796  0.0000198867 -0.0002584432  0.0000571875  0.0003792416 -0.0001065264 -0.0001941588  0.0000559599  
284.3750000000  9.3750000000  8.1231041541  0.0026863343  0.0001707911 270.9809495192  0.0007039384  0.0001669562  0.0005880602  0.0000207300 -0.0002549924  0.0000542879  0.0003565352 -0.0001199997  0.0006661443  0.0000527747  
290.6250000000  9.3750000000  8.1229492187  0.0030048542  0.0001551163 271.0471754808  0.0006770301  0.0001615457  0.0005025527  0.0000207896 -0.0002502804  0.0000528429  0.0003446903 -0.0001384089  0.0011179353  0.0000519796  
296.8750000000  9.3750000000  8.1205951397  0.0033225681  0.0001541435 271.1135216346  0.0006766770  0.0001496538  0.0004132219  0.0000150622 -0.0002450491  0.0000532056  0.0003201316 -0.0001619443  0.0007079081  0.0000512861  
303.1250000000  9.3750000000  8.1168203501  0.0027227507  0.0001602913 271.1777944712  0.0007119020  0.0001376751  0.0003231360  0.0000190153 -0.0002398019  0.0000508690  0.0002553803 -0.0001573103  0.0000578059  0.0000422896  
309.3750000000  9.3750000000  8.1169133113  0.0013487655  0.0001420606 271.2376802885  0.0006834671  0.0001208580  0.0002378107  0.0000097346 -0.0002110971  0.0000464453  0.0001728465 -0.0001221026  0.0001150699  0.0000136805  
315.6250000000  9.3750000000  8.1196495643  0.0008140499  0.0001290992 271.2984675481  0.0005759340  0.0001008401  0.0001654351 -0.0000074262 -0.0001557367  0.0000408557  0.0001109792 -0.0000920604  0.0001461354 -0.0000108471  
321.8750000000  9.3750000000  8.1215482272  0.0006018029  0.0001186947 271.3615084135  0.0004290776  0.0000776245  0.0001114365 -0.0000123120 -0.0000967319  0.0000310973  0.0000597818 -0.0000622551  0.0000560058 -0.0000201036  
328.1250000000  9.3750000000  8.1224750225  0.0003807114  0.0001030534 271.4249699519  0.0002950796  0.0000564719  0.0000744620 -0.0000108735 -0.0000540863  0.0000205690  0.0000281323 -0.0000362858 -0.0000134828 -0.0000183424  
334.3750000000  9.3750000000  8.1228478065  0.0002266485  0.0000862554 271.4884314904  0.0001963932  0.0000408748  0.0000498542 -0.0000081095 -0.0000289915  0.0000127307  0.0000130833 -0.0000200849 -0.0000463245 -0.0000134786  
340.6250000000  9.3750000000  8.1229849008  0.0001421373  0.0000712944 271.5518930288  0.0001307797  0.0000296506  0.0000334412 -0.0000057057 -0.0000152569  0.0000076599  0.0000063054 -0.0000111390 -0.0000522265 -0.0000091172  
346.8750000000  9.3750000000  8.1230384240  0.0000949289  0.0000587517 271.6153545673  0.0000885008  0.0000215527  0.0000223739 -0.0000039794 -0.0000078955  0.0000045283  0.0000031618 -0.0000062912 -0.0000463343 -0.0000059320  
353.1250000000  9.3750000000  8.1230609600  0.0000669017  0.0000482837 271.6788461538  0.0000614063  0.0000157946  0.0000148229 -0.0000028027 -0.0000040153  0.0000026499  0.0000016375 -0.0000036450 -0.0000377622 -0.0000037626  
359.3750000000  9.3750000000  8.1230694111  0.0000495301  0.0000394110 271.7423076923  0.0000440019  0.0000117754  0.0000096185 -0.0000020132 -0.0000020079  0.0000015475  0.0000008685 -0.0000021738 -0.0000297686 -0.0000023316  
365.6250000000  9.3750000000  8.1230750451  0.0000384169  0.0000317301 271.8057692308  0.0000327564  0.0000090121  0.0000060101 -0.0000014877 -0.0000009923  0.0000009092  0.0000004666 -0.0000013332 -0.0000230729 -0.0000014027  
371.8750000000  9.3750000000  8.1230769231  0.0000311667  0.0000249295 271.8692307692  0.0000254539  0.0000071355  0.0000035147 -0.0000011400 -0.0000004977  0.0000005420  0.0000002496 -0.0000008351 -0.0000176036 -0.0000008047  
378.1250000000  9.3750000000  8.1230769231  0.0000264307  0.0000187665 271.9326923077  0.0000207273  0.0000058820  0.0000018227 -0.0000009126 -0.0000002766  0.0000003312  0.0000001293 -0.0000005258 -0.0000131060 -0.0000004236  
384.3750000000  9.3750000000  8.1230769231  0.0000234433  0.0000130445 271.9961538462  0.0000177448  0.0000050734  0.0000007403 -0.0000007682 -0.0000001998  0.0000002098  0.0000000614 -0.0000003216 -0.0000093151 -0.0000001868  
390.6250000000  9.3750000000  8.1230769231  0.0000216758  0.0000075998 272.0596153846  0.0000160239  0.0000045990  0.0000001546 -0.0000006843 -0.0000001996  0.0000001382  0.0000000235 -0.0000001745 -0.0000059950 -0.0000000511  
396.8750000000  9.3750000000  8.1230759841  0.0000213451  0.0000022783 272.1230769231  0.0000152718  0.0000043879  0.0000000075 -0.0000006469 -0.0000001062  0.0000000556  0.0000000048 -0.0000000551 -0.0000018564 -0.0000000045  