 variables=Z,Y,U,V,W,T,UU,VV,WW,UV,UW,VW,TT,UT,VT,WT
 ZONE I =          64 , J=          64
  0.312500000000000       3.055920500000000E-003  2.666567500000000E-003
 -8.035018600000000E-009 -2.554030600000000E-005  2.237395900000000E-003
  1.362469100000000E-006  6.112868700000000E-012  2.418983100000000E-007
 -1.074650600000000E-009 -2.167166600000000E-008  9.129023600000000E-011
  1.052637000000000E-006  1.092177500000000E-006 -9.078518800000000E-010
 -2.951284000000000E-008
  0.937500000000000       3.055920500000000E-003  2.755574900000000E-003
 -8.087964700000000E-008 -1.514760300000000E-005  2.294747200000000E-003
  1.373171300000000E-006  6.200835800000000E-012  2.379929700000000E-007
 -1.112100100000000E-009 -1.138595600000000E-008 -1.108663900000000E-010
  1.014478000000000E-006  1.082742600000000E-006 -8.004068800000000E-010
 -1.246756100000000E-008
   1.56250000000000       3.055920500000000E-003  2.783373700000000E-003
 -1.118500500000000E-007  6.249803700000000E-006  2.321422500000000E-003
  1.429534500000000E-006  6.266648900000000E-012  2.465262700000000E-007
 -1.144741500000000E-009 -2.265416600000000E-008  4.435838700000000E-011
  1.076733500000000E-006  1.147108100000000E-006 -8.956452500000000E-010
 -1.704227600000000E-008
   2.18750000000000       3.055920500000000E-003  2.753165200000000E-003
  1.356167800000000E-008  1.915759300000000E-005  2.310065100000000E-003
  1.443191200000000E-006  5.712336300000000E-012  2.376284400000000E-007
 -1.141050500000000E-009  2.255161700000000E-008 -2.850392400000000E-012
  1.045941300000000E-006  1.136906100000000E-006 -8.576251600000000E-010
  2.272793100000000E-008
   2.81250000000000       3.055920500000000E-003  2.784237800000000E-003
  8.431289399999999E-008  1.267029900000000E-005  2.340641500000000E-003
  1.322073900000000E-006  5.571467600000000E-012  2.559483900000000E-007
 -1.091872600000000E-009  4.969038400000000E-008 -7.337219900000000E-011
  9.709327900000000E-007  1.039649800000000E-006 -8.079577800000000E-010
  4.240605600000000E-008
   3.43750000000000       3.055920500000000E-003  2.883941800000000E-003
 -1.014226400000000E-008  4.728900000000000E-006  2.421862900000000E-003
  1.384613700000000E-006  7.131633100000000E-012  2.825439600000000E-007
 -1.132481400000000E-009  5.528492600000000E-008 -1.329827200000000E-010
  1.059019800000000E-006  1.101175900000000E-006 -9.314541400000000E-010
  4.599283000000000E-008
   4.06250000000000       3.055920500000000E-003  2.938899700000000E-003
 -6.129687000000000E-009  4.230264100000000E-006  2.467464900000000E-003
  1.307716200000000E-006  7.131277200000000E-012  2.864932600000000E-007
 -9.970758899999999E-010 -6.033834400000000E-008  1.001841300000000E-010
  1.035639400000000E-006  1.050331300000000E-006 -7.710746600000000E-010
 -3.822838000000000E-008
   4.68750000000000       3.055920500000000E-003  2.934774200000000E-003
 -1.206797700000000E-007  1.726795000000000E-005  2.454195600000000E-003
  1.472411600000000E-006  7.429231399999999E-012  2.570621200000000E-007
 -1.514947900000000E-009 -5.774312700000000E-009 -1.039118400000000E-011
  1.142462900000000E-006  1.172743200000000E-006 -1.198997200000000E-009
 -3.671109300000000E-009
   5.31250000000000       3.055920500000000E-003  2.901867100000000E-003
 -1.423867300000000E-007  4.614229900000000E-005  2.436484900000000E-003
  1.511334800000000E-006  7.254466900000000E-012  2.671733100000000E-007
 -1.391560200000000E-009  4.949031500000000E-008  5.519007300000000E-012
  1.172105300000000E-006  1.211286800000000E-006 -1.003901700000000E-009
  4.831652700000000E-008
   5.93750000000000       3.055920500000000E-003  2.782572400000000E-003
 -3.732987300000000E-008  6.693337500000000E-005  2.353484800000000E-003
  1.384321200000000E-006  6.568914900000000E-012  2.521487100000000E-007
 -8.130061000000000E-010  3.131429900000000E-008  9.897728900000000E-011
  1.079344300000000E-006  1.122251700000000E-006 -5.987552400000000E-010
  3.135430300000000E-008
   6.56250000000000       3.055920500000000E-003  2.677682800000000E-003
  1.656259100000000E-007  5.613045700000000E-005  2.272913000000000E-003
  1.411327100000000E-006  6.851297900000000E-012  2.515291200000000E-007
 -1.247999500000000E-009  4.189348200000000E-008 -8.247697600000000E-011
  1.106351600000000E-006  1.147053100000000E-006 -9.459983899999999E-010
  3.804585300000000E-008
   7.18750000000000       3.055920500000000E-003  2.690552600000000E-003
  1.371334100000000E-007  2.566570300000000E-005  2.272232700000000E-003
  1.379188300000000E-006  6.409011600000000E-012  2.662337800000000E-007
 -1.083063200000000E-009  2.730989000000000E-008  2.357634200000000E-011
  1.073572200000000E-006  1.110248400000000E-006 -8.696954600000000E-010
  2.509111400000000E-008
   7.81250000000000       3.055920500000000E-003  2.704502400000000E-003
  8.564085500000000E-008  3.549893600000000E-006  2.275570500000000E-003
  1.385319000000000E-006  6.335650200000000E-012  2.498819500000000E-007
 -9.587625599999999E-010 -2.077908800000000E-008  4.009015700000000E-011
  1.053732300000000E-006  1.103904900000000E-006 -6.902224100000000E-010
 -7.336930800000000E-009
   8.43750000000000       3.055920500000000E-003  2.646903700000000E-003
  1.287495800000000E-007 -1.738639300000000E-005  2.236785300000000E-003
  1.380561400000000E-006  7.270000500000000E-012  2.483572400000000E-007
 -1.069737500000000E-009 -2.142686300000000E-008 -9.647550800000000E-011
  1.041548900000000E-006  1.103324700000000E-006 -8.715718800000000E-010
 -1.928226500000000E-008
   9.06250000000000       3.055920500000000E-003  2.710848100000000E-003
  9.687486500000000E-008 -4.098035200000000E-005  2.282178000000000E-003
  1.408540300000000E-006  5.870753600000000E-012  2.889922800000000E-007
 -1.033268500000000E-009 -3.018419700000000E-008 -4.616192100000000E-011
  1.039910200000000E-006  1.111371000000000E-006 -7.847726900000000E-010
 -1.500325400000000E-008
   9.68750000000000       3.055920500000000E-003  2.805271800000000E-003
  1.132111300000000E-007 -6.028419200000000E-005  2.359442300000000E-003
  1.568837300000000E-006  8.403799500000001E-012  2.868374100000000E-007
 -1.643320200000000E-009  1.508191200000000E-008 -8.063317800000000E-011
  1.207909700000000E-006  1.278025800000000E-006 -1.289888300000000E-009
  1.717082300000000E-008
   10.3125000000000       3.055920500000000E-003  2.954739800000000E-003
 -4.812526800000000E-008 -6.295313200000001E-005  2.475200300000000E-003
  1.560227600000000E-006  8.166772700000001E-012  3.020346300000000E-007
 -1.237544200000000E-009 -1.239672100000000E-009 -2.831961300000000E-011
  1.186263900000000E-006  1.257059300000000E-006 -8.887320400000000E-010
 -6.631499700000000E-009
   10.9375000000000       3.055920500000000E-003  3.018236800000000E-003
 -1.334922300000000E-007 -4.428418800000000E-005  2.537967500000000E-003
  1.504589200000000E-006  6.802403800000000E-012  3.044224800000000E-007
 -1.065205100000000E-009 -1.842814900000000E-008  1.091628600000000E-011
  1.244171200000000E-006  1.246818000000000E-006 -8.707937300000000E-010
 -4.000663100000000E-008
   11.5625000000000       3.055920500000000E-003  3.035594700000000E-003
 -1.218383900000000E-007 -2.111417400000000E-005  2.547210100000000E-003
  1.605028100000000E-006  6.872708900000000E-012  2.908369100000000E-007
 -1.402819800000000E-009 -5.677087500000000E-008  2.195376200000000E-011
  1.234721900000000E-006  1.287244300000000E-006 -1.094890700000000E-009
 -5.657991800000000E-008
   12.1875000000000       3.055920500000000E-003  3.009188800000000E-003
 -6.906834800000000E-009 -7.688547599999999E-006  2.533100900000000E-003
  1.615775300000000E-006  6.616135200000000E-012  2.849068700000000E-007
 -1.430087000000000E-009 -5.620093800000000E-008  4.143869500000000E-011
  1.203995100000000E-006  1.298450600000000E-006 -1.149807400000000E-009
 -5.338980800000000E-008
   12.8125000000000       3.055920500000000E-003  2.986100000000000E-003
 -1.022226900000000E-007  5.627148100000000E-006  2.514945400000000E-003
  1.552324900000000E-006  5.978780400000000E-012  2.528963500000000E-007
 -1.155898300000000E-009 -3.793054400000000E-008  1.230521200000000E-010
  1.141354200000000E-006  1.226162600000000E-006 -8.995651900000000E-010
 -4.107295900000000E-008
   13.4375000000000       3.055920500000000E-003  2.948068100000000E-003
 -2.240728700000000E-007  3.911170100000000E-005  2.475717800000000E-003
  1.481517100000000E-006  5.509867300000000E-012  2.372648700000000E-007
 -1.261402100000000E-009 -1.378828400000000E-008  1.598344500000000E-012
  1.106911000000000E-006  1.186287800000000E-006 -1.004023900000000E-009
 -1.559060500000000E-008
   14.0625000000000       3.055920500000000E-003  2.769195100000000E-003
 -1.455724800000000E-008  6.342012200000000E-005  2.329406500000000E-003
  1.393072200000000E-006  5.115463800000000E-012  2.366562200000000E-007
 -8.739939100000000E-010 -1.344170200000000E-008 -1.122014200000000E-011
  1.051390700000000E-006  1.117074300000000E-006 -6.748594900000000E-010
 -2.202191400000000E-008
   14.6875000000000       3.055920500000000E-003  2.637788400000000E-003
  1.860186700000000E-007  4.736954900000000E-005  2.223630700000000E-003
  1.538201000000000E-006  7.583043600000000E-012  2.377307500000000E-007
 -1.396702500000000E-009  2.899765100000000E-008 -1.192091400000000E-010
  1.073044200000000E-006  1.188220200000000E-006 -1.026719600000000E-009
  1.249875600000000E-008
   15.3125000000000       3.055920500000000E-003  2.656467600000000E-003
  1.169469300000000E-007  1.835416800000000E-005  2.221932600000000E-003
  1.559887500000000E-006  6.505466600000000E-012  2.713525200000000E-007
 -1.230343200000000E-009  2.762879800000000E-008 -4.132377800000000E-011
  1.128579300000000E-006  1.226749000000000E-006 -9.534113700000000E-010
  1.923868600000000E-008
   15.9375000000000       3.055920500000000E-003  2.615402900000000E-003
  2.097821300000000E-007 -1.407708000000000E-005  2.196533200000000E-003
  1.297006600000000E-006  5.944814500000000E-012  2.786085500000000E-007
 -8.666536800000000E-010 -3.075346400000000E-008  2.169734400000000E-011
  9.633087000000000E-007  1.029589300000000E-006 -6.573314300000000E-010
 -2.103770700000000E-008
   16.5625000000000       3.055920500000000E-003  2.691097900000000E-003
  7.291852500000000E-008 -4.258146900000000E-005  2.262625600000000E-003
  1.388336500000000E-006  6.274617800000000E-012  2.615485100000000E-007
 -1.320846200000000E-009 -5.035952800000000E-008  4.934876500000000E-011
  1.026671200000000E-006  1.095544600000000E-006 -9.614788999999999E-010
 -3.787145300000000E-008
   17.1875000000000       3.055920500000000E-003  2.797515300000000E-003
 -6.256851300000000E-008 -4.452406500000000E-005  2.353130600000000E-003
  1.302945200000000E-006  6.346367200000000E-012  2.437479000000000E-007
 -1.137146300000000E-009 -5.269350400000000E-008  4.197003300000000E-011
  1.050945100000000E-006  1.072400600000000E-006 -9.354824700000000E-010
 -3.092113500000000E-008
   17.8125000000000       3.055920500000000E-003  2.864324500000000E-003
 -1.254358700000000E-007 -2.463669100000000E-005  2.413116000000000E-003
  1.340091800000000E-006  5.511870700000000E-012  2.426063500000000E-007
 -1.072561900000000E-009 -1.829874200000000E-008  6.451584000000000E-012
  1.042806000000000E-006  1.083646100000000E-006 -8.046553500000000E-010
 -3.269635900000000E-009
   18.4375000000000       3.055920500000000E-003  2.911677100000000E-003
 -1.686921900000000E-007  5.984964900000000E-006  2.454466500000000E-003
  1.281647600000000E-006  5.935063400000000E-012  2.743220500000000E-007
 -1.023921200000000E-009  3.436371300000000E-008 -1.469431500000000E-010
  1.008299900000000E-006  1.030397400000000E-006 -7.850809000000000E-010
  3.353777700000000E-008
   19.0625000000000       3.055920500000000E-003  2.868805800000000E-003
 -2.161436200000000E-009  1.910326400000000E-005  2.416167400000000E-003
  1.185303400000000E-006  5.923819200000000E-012  3.083138800000000E-007
 -8.922463400000000E-010  3.197560800000000E-008  1.228372500000000E-011
  9.538670299999999E-007  9.559750999999999E-007 -7.257288000000000E-010
  2.454263800000000E-008
   19.6875000000000       3.055920500000000E-003  2.838901400000000E-003
 -1.258910100000000E-008  1.789354200000000E-005  2.384541600000000E-003
  1.394391600000000E-006  7.243586700000000E-012  2.566322800000000E-007
 -1.206230200000000E-009 -4.472927500000000E-008  1.527078000000000E-010
  1.095234500000000E-006  1.142410200000000E-006 -9.506889800000000E-010
 -3.217751600000000E-008
   20.3125000000000       3.055920500000000E-003  2.790555900000000E-003
 -7.009945100000001E-008  2.866134300000000E-005  2.336248600000000E-003
  1.323342700000000E-006  6.245183000000000E-012  2.429686200000000E-007
 -1.253342700000000E-009  1.350196300000000E-009 -8.093911700000001E-012
  1.003098400000000E-006  1.050883400000000E-006 -1.003337400000000E-009
  4.322141800000000E-009
   20.9375000000000       3.055920500000000E-003  2.748024000000000E-003
  8.655621200000000E-008  3.025499500000000E-005  2.317879500000000E-003
  1.338671300000000E-006  6.483466000000000E-012  2.504340600000000E-007
 -1.109121000000000E-009  2.857161200000000E-008 -5.578922100000000E-011
  1.044086200000000E-006  1.090044800000000E-006 -8.916185400000000E-010
  2.922962200000000E-008
   21.5625000000000       3.055920500000000E-003  2.765904100000000E-003
  1.409110200000000E-007  8.780763399999999E-006  2.322986700000000E-003
  1.564844100000000E-006  8.407701399999999E-012  2.661477400000000E-007
 -1.526588300000000E-009  3.004119100000000E-008 -1.053800800000000E-010
  1.187663200000000E-006  1.251231300000000E-006 -1.148715500000000E-009
  2.197300200000000E-008
   22.1875000000000       3.055920500000000E-003  2.792967300000000E-003
  1.237841400000000E-007 -1.480121100000000E-005  2.340132800000000E-003
  1.825067300000000E-006  9.215699700000001E-012  2.631644300000000E-007
 -1.850846700000000E-009 -4.717265300000000E-009  2.328912700000000E-011
  1.370148700000000E-006  1.453582800000000E-006 -1.306065900000000E-009
  2.978455900000000E-009
   22.8125000000000       3.055920500000000E-003  2.877344600000000E-003
 -6.439085800000000E-008 -1.717238200000000E-005  2.408436900000000E-003
  1.805016900000000E-006  7.965013500000000E-012  2.662329900000000E-007
 -1.828908000000000E-009  1.289309000000000E-008  1.384560700000000E-011
  1.273152200000000E-006  1.397243100000000E-006 -1.375969800000000E-009
  1.837814200000000E-008
   23.4375000000000       3.055920500000000E-003  2.837146700000000E-003
  2.585353600000000E-008 -1.236613900000000E-005  2.382100300000000E-003
  1.499843100000000E-006  7.527443099999999E-012  2.676218800000000E-007
 -1.467747200000000E-009  4.648422400000000E-008  2.307985900000000E-011
  1.083727300000000E-006  1.164953800000000E-006 -1.026457800000000E-009
  4.118281800000000E-008
   24.0625000000000       3.055920500000000E-003  2.811807700000000E-003
  6.062345799999999E-008 -2.054207400000000E-005  2.367824900000000E-003
  1.277176600000000E-006  7.678054599999999E-012  2.644244300000000E-007
 -9.396664000000000E-010  2.255322300000000E-009 -3.777642400000000E-011
  9.933577300000001E-007  1.017757600000000E-006 -7.993262400000000E-010
  7.509678200000001E-009
   24.6875000000000       3.055920500000000E-003  2.887211000000000E-003
 -1.822117800000000E-007 -8.718762699999999E-006  2.418508500000000E-003
  1.560048200000000E-006  7.499118900000000E-012  2.785175200000000E-007
 -1.549168200000000E-009 -2.117322800000000E-008 -1.704758100000000E-011
  1.127217900000000E-006  1.204820600000000E-006 -1.117154800000000E-009
  1.900750600000000E-009
   25.3125000000000       3.055920500000000E-003  2.872492600000000E-003
  6.547913600000000E-008  3.030493100000000E-006  2.424037100000000E-003
  1.399398000000000E-006  6.880810600000000E-012  2.850238000000000E-007
 -1.037985800000000E-009 -1.543357300000000E-008  9.674369200000001E-011
  1.074149400000000E-006  1.121054400000000E-006 -7.457323400000001E-010
 -4.766104000000000E-009
   25.9375000000000       3.055920500000000E-003  2.866704600000000E-003
  2.470032600000000E-007 -2.556894300000000E-005  2.418415000000000E-003
  1.167309000000000E-006  6.379894500000000E-012  2.793454200000000E-007
 -8.732599400000000E-010  3.543609900000000E-009  7.729337900000000E-014
  9.178924500000000E-007  9.494875900000000E-007 -6.902317800000000E-010
 -7.333270100000000E-009
   26.5625000000000       3.055920500000000E-003  2.981934200000000E-003
 -1.313404200000000E-007 -3.401560300000000E-005  2.503165900000000E-003
  1.362030600000000E-006  6.907948200000000E-012  2.587289200000000E-007
 -1.136241600000000E-009 -4.665576300000000E-008  6.897336000000000E-011
  1.090534600000000E-006  1.119776200000000E-006 -9.222905500000000E-010
 -4.439876800000000E-008
   27.1875000000000       3.055920500000000E-003  2.941714200000000E-003
 -1.231314400000000E-007 -6.538257900000000E-006  2.475661700000000E-003
  1.576218100000000E-006  6.292297900000000E-012  2.494314400000000E-007
 -1.529153600000000E-009 -1.122204500000000E-008 -3.358551400000000E-012
  1.239176000000000E-006  1.300338200000000E-006 -1.283006900000000E-009
 -6.272603300000000E-009
   27.8125000000000       3.055920500000000E-003  2.913029400000000E-003
  3.825934000000000E-009  4.864571200000000E-006  2.451259600000000E-003
  1.321602000000000E-006  5.984442000000000E-012  2.698006300000000E-007
 -1.057018600000000E-009  2.282342000000000E-009  3.275674300000000E-012
  1.031408300000000E-006  1.080158100000000E-006 -7.863721700000000E-010
  1.109090600000000E-008
   28.4375000000000       3.055920500000000E-003  2.930182500000000E-003
 -6.545139100000000E-008  8.199672000000001E-006  2.458901200000000E-003
  1.465821200000000E-006  6.704094100000000E-012  2.857778100000000E-007
 -1.262792500000000E-009 -1.848946900000000E-008 -5.799302000000000E-011
  1.130155000000000E-006  1.180072300000000E-006 -1.012840300000000E-009
 -2.172217600000000E-008
   29.0625000000000       3.055920500000000E-003  2.829427800000000E-003
  1.068311400000000E-007  2.914541000000000E-006  2.374708500000000E-003
  1.313471100000000E-006  5.990305500000000E-012  2.877356300000000E-007
 -9.030591300000000E-010 -7.145103100000000E-008  1.142319800000000E-010
  9.557384399999999E-007  1.024297800000000E-006 -7.091166100000000E-010
 -6.394689900000000E-008
   29.6875000000000       3.055920500000000E-003  2.824964300000000E-003
 -4.407816600000000E-008 -1.300090900000000E-006  2.366603200000000E-003
  1.649439700000000E-006  7.678851700000001E-012  2.532134600000000E-007
 -1.747828400000000E-009 -6.922090700000000E-009 -8.036303500000000E-011
  1.187376300000000E-006  1.285304800000000E-006 -1.398579200000000E-009
 -1.512570400000000E-008
   30.3125000000000       3.055920500000000E-003  2.814701300000000E-003
  6.151708800000000E-008 -5.157160000000000E-008  2.356206200000000E-003
  1.255540100000000E-006  5.695970700000000E-012  2.959840100000000E-007
 -6.571157500000000E-010  1.934274800000000E-008 -2.771500600000000E-011
  9.401725200000000E-007  9.746967400000000E-007 -5.123152700000000E-010
  1.184315500000000E-008
   30.9375000000000       3.055920500000000E-003  2.875156600000000E-003
 -1.033707000000000E-007  7.000177000000000E-006  2.394723900000000E-003
  1.644313300000000E-006  6.784994900000000E-012  2.919042300000000E-007
 -1.209545800000000E-009 -1.204969500000000E-008 -8.096514899999999E-012
  1.152648200000000E-006  1.265129100000000E-006 -9.229321800000000E-010
 -2.459867900000000E-009
   31.5625000000000       3.055920500000000E-003  2.826030000000000E-003
  4.310768600000000E-008  1.547066700000000E-005  2.371306300000000E-003
  1.501438300000000E-006  7.225526400000000E-012  2.801186300000000E-007
 -1.166001200000000E-009  4.754045900000000E-009  2.770253600000000E-011
  1.126874200000000E-006  1.194260800000000E-006 -9.529934200000000E-010
  2.697057200000000E-009
   32.1875000000000       3.055920500000000E-003  2.819572200000000E-003
 -5.407209100000000E-008  1.741419200000000E-005  2.366191600000000E-003
  1.579463900000000E-006  8.906488300000000E-012  2.717164600000000E-007
 -1.532640500000000E-009  2.563052500000000E-008 -4.734943800000000E-011
  1.192739800000000E-006  1.265459200000000E-006 -1.178619700000000E-009
  1.925204000000000E-008
   32.8125000000000       3.055920500000000E-003  2.802503000000000E-003
 -7.287326500000000E-009  2.265475200000000E-005  2.354953000000000E-003
  1.541507600000000E-006  8.994950100000001E-012  2.661642700000000E-007
 -1.473830100000000E-009  1.773659700000000E-008  6.310993600000000E-011
  1.195417800000000E-006  1.233489800000000E-006 -1.121940200000000E-009
  2.469540900000000E-008
   33.4375000000000       3.055920500000000E-003  2.745882700000000E-003
  2.075578500000000E-007  7.726835800000000E-007  2.317371500000000E-003
  1.327208700000000E-006  7.165882900000000E-012  2.724788500000000E-007
 -8.946395600000000E-010 -5.174955100000000E-008  5.261573400000000E-011
  1.033553700000000E-006  1.056155600000000E-006 -6.143195200000000E-010
 -3.938885600000000E-008
   34.0625000000000       3.055920500000000E-003  2.784624800000000E-003
  1.077966300000000E-007 -2.949121700000000E-005  2.337417300000000E-003
  1.471627300000000E-006  7.332736400000000E-012  2.644444700000000E-007
 -1.369041600000000E-009 -5.941384200000000E-008 -1.518178300000000E-011
  1.095240300000000E-006  1.152346500000000E-006 -1.001762100000000E-009
 -4.793673000000000E-008
   34.6875000000000       3.055920500000000E-003  2.876150000000000E-003
 -4.381368900000000E-008 -3.125634000000000E-005  2.404978000000000E-003
  1.518269300000000E-006  6.989554600000000E-012  2.586575500000000E-007
 -1.354947800000000E-009 -3.448788700000000E-009  4.451222600000000E-011
  1.162519900000000E-006  1.215815200000000E-006 -1.091803500000000E-009
  7.164991000000000E-009
   35.3125000000000       3.055920500000000E-003  2.921847000000000E-003
  1.012635500000000E-007 -3.406342200000000E-005  2.451311300000000E-003
  1.368738100000000E-006  7.219546500000000E-012  2.757311700000000E-007
 -1.007140900000000E-009  1.029728300000000E-008 -8.501167900000001E-011
  1.060935500000000E-006  1.088112200000000E-006 -7.091347000000000E-010
  1.137491000000000E-008
   35.9375000000000       3.055920500000000E-003  3.040070900000000E-003
 -1.300994300000000E-007 -3.164673200000000E-005  2.542416200000000E-003
  1.595051200000000E-006  6.641116400000000E-012  2.824853800000000E-007
 -1.384942200000000E-009 -4.743700600000000E-008  6.517630499999999E-011
  1.220457200000000E-006  1.273293600000000E-006 -1.107112100000000E-009
 -5.127090900000000E-008
   36.5625000000000       3.055920500000000E-003  3.066417500000000E-003
 -1.999455100000000E-007  2.078758300000000E-006  2.562028200000000E-003
  1.535552200000000E-006  7.354752200000001E-012  2.721292000000000E-007
 -1.488013000000000E-009  1.653146900000000E-008 -5.085176900000000E-011
  1.204508100000000E-006  1.229848100000000E-006 -1.204426700000000E-009
  2.258204800000000E-008
   37.1875000000000       3.055920500000000E-003  3.031355100000000E-003
 -1.393815300000000E-007  3.780926800000000E-005  2.540043900000000E-003
  1.500651500000000E-006  7.483661600000000E-012  3.051681600000000E-007
 -1.249153800000000E-009 -1.523298000000000E-010 -9.062169600000000E-011
  1.256474200000000E-006  1.232906400000000E-006 -9.311312400000000E-010
  1.047666400000000E-008
   37.8125000000000       3.055920500000000E-003  2.926839200000000E-003
  1.495386100000000E-008  5.111580500000000E-005  2.452408300000000E-003
  1.727138700000000E-006  8.123327000000000E-012  3.049180600000000E-007
 -1.649094200000000E-009 -3.119114700000000E-008  7.343725800000000E-011
  1.431835800000000E-006  1.434633400000000E-006 -1.463252000000000E-009
 -1.101763500000000E-008
   38.4375000000000       3.055920500000000E-003  2.787294300000000E-003
  1.030504100000000E-007  3.978024600000000E-005  2.343538800000000E-003
  1.741163500000000E-006  8.613245300000001E-012  2.852717500000000E-007
 -1.744720700000000E-009  1.627917500000000E-008 -1.839343400000000E-012
  1.290842000000000E-006  1.389913500000000E-006 -1.255458600000000E-009
  1.839552500000000E-008
   39.0625000000000       3.055920500000000E-003  2.669250000000000E-003
  1.136340100000000E-007  1.739598200000000E-005  2.255703100000000E-003
  1.447345900000000E-006  8.184856200000000E-012  2.741341700000000E-007
 -1.315554700000000E-009 -3.651208300000000E-008  1.064110700000000E-010
  1.121570700000000E-006  1.181971400000000E-006 -1.089359100000000E-009
 -2.828575900000000E-008
   39.6875000000000       3.055920500000000E-003  2.616816700000000E-003
  1.706129200000000E-007 -1.045296300000000E-005  2.214192600000000E-003
  1.385851700000000E-006  7.043357300000000E-012  2.634251900000000E-007
 -1.016914100000000E-009 -1.420571200000000E-008  4.878552900000000E-011
  1.048453700000000E-006  1.117704800000000E-006 -6.890009300000000E-010
 -2.068137500000000E-008
  0.312500000000000       9.522363300000000E-003  8.308519000000000E-003
 -4.090011700000000E-008 -7.793710000000000E-005  6.971796900000000E-003
  1.319934900000000E-005  1.838657700000000E-010  2.372078400000000E-006
 -1.879055200000000E-008 -2.243867500000000E-007  1.566608400000000E-009
  1.022112300000000E-005  1.057137900000000E-005 -1.583720200000000E-008
 -2.992076800000000E-007
  0.937500000000000       9.522363300000000E-003  8.585839000000000E-003
 -4.373559400000000E-007 -4.635885100000000E-005  7.150515200000000E-003
  1.332662400000000E-005  1.858370000000000E-010  2.334428400000000E-006
 -1.942755400000000E-008 -1.118495900000000E-007 -1.882095100000000E-009
  9.850684899999999E-006  1.048831100000000E-005 -1.393098000000000E-008
 -1.200083900000000E-007
   1.56250000000000       9.522363300000000E-003  8.672448600000000E-003
 -6.064793000000000E-007  1.924204300000000E-005  7.233635900000000E-003
  1.387276200000000E-005  1.877509300000000E-010  2.417109700000000E-006
 -1.990662900000000E-008 -2.139406100000000E-007  7.449147000000000E-010
  1.045518400000000E-005  1.111384900000000E-005 -1.558899200000000E-008
 -1.607310300000000E-007
   2.18750000000000       9.522363300000000E-003  8.578307600000000E-003
  7.514399600000000E-008  5.882342900000000E-005  7.198238700000000E-003
  1.400705200000000E-005  1.709895000000000E-010  2.335286100000000E-006
 -1.979638600000000E-008  2.195500500000000E-007 -5.599178600000000E-011
  1.015616200000000E-005  1.101723300000000E-005 -1.485982200000000E-008
  2.213937700000000E-007
   2.81250000000000       9.522363300000000E-003  8.675182800000000E-003
  4.561754100000000E-007  3.902843000000000E-005  7.293513700000000E-003
  1.283486900000000E-005  1.670755600000000E-010  2.517469300000000E-006
 -1.896195900000000E-008  4.817760200000000E-007 -1.279879800000000E-009
  9.427729400000000E-006  1.007276600000000E-005 -1.405137400000000E-008
  4.083960900000000E-007
   3.43750000000000       9.522363300000000E-003  8.985933500000000E-003
 -5.666747100000000E-008  1.486601200000000E-005  7.546608800000000E-003
  1.343215700000000E-005  2.135658700000000E-010  2.770708200000000E-006
 -1.972854400000000E-008  5.354483100000000E-007 -2.224007200000000E-009
  1.028313300000000E-005  1.066268400000000E-005 -1.619741400000000E-008
  4.408917900000000E-007
   4.06250000000000       9.522363300000000E-003  9.157205700000001E-003
 -3.955495900000000E-008  1.390282100000000E-005  7.688706400000000E-003
  1.268756000000000E-005  2.144346200000000E-010  2.798999100000000E-006
 -1.755633400000000E-008 -5.799526700000000E-007  1.669230200000000E-009
  1.005603700000000E-005  1.016729400000000E-005 -1.358640200000000E-008
 -3.673707700000000E-007
   4.68750000000000       9.522363300000000E-003  9.144204300000000E-003
 -6.530253900000000E-007  5.426777000000000E-005  7.647354700000000E-003
  1.427760600000000E-005  2.229692400000000E-010  2.530948800000000E-006
 -2.634443800000000E-008 -5.495807800000000E-008 -1.800678300000000E-010
  1.109343600000000E-005  1.135548400000000E-005 -2.082967800000000E-008
 -2.918414300000000E-008
   5.31250000000000       9.522363300000000E-003  9.041677600000001E-003
 -7.715765700000000E-007  1.426973800000000E-004  7.592176000000000E-003
  1.466512900000000E-005  2.171090300000000E-010  2.627278700000000E-006
 -2.417232600000000E-008  4.724174200000000E-007  1.341569200000000E-010
  1.138121300000000E-005  1.173535900000000E-005 -1.742382300000000E-008
  4.633587800000000E-007
   5.93750000000000       9.522363300000000E-003  8.669946899999999E-003
 -2.002504900000000E-007  2.063086600000000E-004  7.333535000000000E-003
  1.343948200000000E-005  1.967744100000000E-010  2.478380900000000E-006
 -1.448716200000000E-008  3.044131300000000E-007  1.647436500000000E-009
  1.048041000000000E-005  1.087416600000000E-005 -1.072015100000000E-008
  2.991375700000000E-007
   6.56250000000000       9.522363300000000E-003  8.343200100000000E-003
  9.016475100000001E-007  1.727455600000000E-004  7.082466900000000E-003
  1.369884500000000E-005  2.056932900000000E-010  2.482834200000000E-006
 -2.167356800000000E-008  4.104150800000000E-007 -1.375017300000000E-009
  1.074279000000000E-005  1.111249800000000E-005 -1.642664700000000E-008
  3.686485700000000E-007
   7.18750000000000       9.522363300000000E-003  8.383440299999999E-003
  7.455899200000000E-007  7.882348100000000E-005  7.080352400000000E-003
  1.337778200000000E-005  1.923435900000000E-010  2.615195900000000E-006
 -1.887145000000000E-008  2.559725200000000E-007  4.590975100000000E-010
  1.042444700000000E-005  1.075097600000000E-005 -1.515338900000000E-008
  2.325390500000000E-007
   7.81250000000000       9.522363300000000E-003  8.426832000000000E-003
  4.663220200000000E-007  1.066197200000000E-005  7.090759200000000E-003
  1.344065800000000E-005  1.902719800000000E-010  2.452545900000000E-006