VARIABLES = Z,Y,U,V,W,T,UU,VV,WW,UV,UW,VW,TT,UT,VT,WT 
ZONE I = 66 J = 65 
 0.000001  3.1250000000  0.0000000001  0.0000001  0.0000001 263.1249699519  0.0203907141  0.0145844405  0.0000001  0.0000001  0.0000001  0.0000001  0.0002155693  0.0000001  0.0000001  0.0000001  
 3.1250000000  3.1250000000  1.9451797485  1.4566475501 -0.0000092848 263.5018329327  0.1234210821  0.0824627143  0.0055815688  0.0333148039 -0.0097813019 -0.0059051243  0.0012043406  0.0052883831  0.0040586829 -0.0010470346  
 9.3750000000  3.1250000000  2.6516122671  1.9444961548  0.0000781346 263.5652944712  0.2293619009  0.1340807695  0.0211851652  0.0926573680 -0.0316317742 -0.0193817524  0.0024219045  0.0145107416  0.0100012266 -0.0038530400  
15.6250000000  3.1250000000  3.3258495624  2.3600837121  0.0002669095 263.6327223558  0.2780323029  0.1590474642  0.0386309330  0.1308681635 -0.0449332311 -0.0255295020  0.0037365902  0.0263818594  0.0161276854 -0.0060418464  
21.8750000000  3.1250000000  3.7324836144  2.5744527963  0.0003338497 263.6850060096  0.2589034447  0.1560622582  0.0520191009  0.0988666755 -0.0448288294 -0.0225516081  0.0043148660  0.0266962363  0.0153123232 -0.0065795362  
28.1250000000  3.1250000000  4.0845285269  2.7431574895  0.0001913385 263.7308894231  0.2424475743  0.1516031705  0.0605215623  0.0766777039 -0.0451642843 -0.0203415742  0.0046418355  0.0263231956  0.0144724589 -0.0068282187  
34.3750000000  3.1250000000  4.3913583609  2.8723496657 -0.0001836548 263.7719050481  0.2292771413  0.1426303570  0.0635241875  0.0610504407 -0.0450468027 -0.0184722240  0.0048259731  0.0248561401  0.0131007543 -0.0068676706  
40.6250000000  3.1250000000  4.6612713154  2.9779479980 -0.0006043600 263.8095853365  0.2140355917  0.1335861940  0.0636606877  0.0502511098 -0.0433772564 -0.0169758191  0.0050073385  0.0240684784  0.0111444171 -0.0067199978  
46.8750000000  3.1250000000  4.9127061110  3.0627880390 -0.0006422536 263.8451923077  0.1997766201  0.1223317220  0.0628589337  0.0391586817 -0.0411372552 -0.0150911432  0.0052527171  0.0233909534  0.0092737638 -0.0065660445  
53.1250000000  3.1250000000  5.1520662748  3.1351947491 -0.0006564930 263.8797175481  0.1870995888  0.1100970855  0.0605388825  0.0326771186 -0.0387881206 -0.0130032099  0.0055542341  0.0227316728  0.0082935141 -0.0064887148  
59.3750000000  3.1250000000  5.3816171499  3.1969689002 -0.0004348608 263.9137620192  0.1739400277  0.1012988091  0.0570319102  0.0275722192 -0.0366630664 -0.0105985155  0.0058586501  0.0222652527  0.0072272576 -0.0063065433  
65.6250000000  3.1250000000  5.6035038875  3.2423128568 -0.0002208853 263.9483774038  0.1623350290  0.0955097639  0.0537901475  0.0216290125 -0.0344280133 -0.0077213287  0.0061298063  0.0220730488  0.0056646320 -0.0060104200  
71.8750000000  3.1250000000  5.8197514461  3.2699484018 -0.0001682838 263.9839843750  0.1539631770  0.0905591745  0.0510022310  0.0178020202 -0.0328322411 -0.0051719106  0.0064286535  0.0218520770  0.0046223365 -0.0059092182  
78.1250000000  3.1250000000  6.0271780161  3.2813377967 -0.0000900397 264.0188701923  0.1473081002  0.0851346603  0.0488489224  0.0135704783 -0.0316235102 -0.0028752141  0.0067325707  0.0218463182  0.0037446469 -0.0058600119  
84.3750000000  3.1250000000  6.2280085637  3.2880457951 -0.0001014314 264.0539362981  0.1430131472  0.0796027550  0.0466161068  0.0084564933 -0.0297972386 -0.0010363029  0.0070609528  0.0217639593  0.0024635579 -0.0057258400  
90.6250000000  3.1250000000  6.4278545673  3.2983424260 -0.0001372919 264.0911658654  0.1399042863  0.0727813647  0.0438147582  0.0036842211 -0.0275072556  0.0001115797  0.0074385914  0.0220529318  0.0010828268 -0.0054832188  
96.8750000000  3.1250000000  6.6314359225  3.3034630409  0.0000421624 264.1306490385  0.1329759011  0.0660097709  0.0414578291 -0.0015571944 -0.0246576328  0.0013297098  0.0077831672  0.0226169550 -0.0008043295 -0.0050880015  
103.1250000000  3.1250000000  6.8428128756  3.2929236779  0.0001726680 264.1723557692  0.1226808255  0.0620707659  0.0392404703 -0.0076557710 -0.0218411592  0.0025702859  0.0081335636  0.0223221999 -0.0028467382 -0.0046683330  
109.3750000000  3.1250000000  7.0601661095  3.2597994291  0.0002120216 264.2168569712  0.1137388229  0.0593568362  0.0368762456 -0.0103878379 -0.0193630200  0.0034968940  0.0087162284  0.0222111904 -0.0048371155 -0.0043505655  
115.6250000000  3.1250000000  7.2802058293  3.2049492469  0.0002458123 264.2652343750  0.1054667253  0.0560240599  0.0342344614 -0.0144531415 -0.0170702439  0.0045208885  0.0094469584  0.0226509498 -0.0061449202 -0.0040640666  
121.8750000000  3.1250000000  7.4978280874  3.1362961989  0.0001914279 264.3189903846  0.0960932805  0.0545318750  0.0311871492 -0.0185159426 -0.0148455528  0.0049935758  0.0101426748  0.0224621241 -0.0078259294 -0.0037461405  
128.1250000000  3.1250000000  7.7143385667  3.0487483098  0.0000327597 264.3794471154  0.0832436855  0.0530342432  0.0284529301 -0.0209535250 -0.0129538710  0.0048278382  0.0107507137  0.0216078593 -0.0096813275 -0.0035239997  
134.3750000000  3.1250000000  7.9254704402  2.9326622596 -0.0000764089 264.4444110577  0.0689411530  0.0506665340  0.0257108193 -0.0216451572 -0.0108837375  0.0047347559  0.0111491488  0.0194710236 -0.0114115046 -0.0033141134  
140.6250000000  3.1250000000  8.1250591572  2.7889028696 -0.0000562312 264.5137019231  0.0569353801  0.0499015698  0.0230314236 -0.0203018078 -0.0088784328  0.0047586290  0.0114970381  0.0172797680 -0.0129420005 -0.0031246149  
146.8750000000  3.1250000000  8.3158991887  2.6203709529 -0.0000385872 264.5897235577  0.0458426512  0.0533145244  0.0213824914 -0.0206055109 -0.0070119165  0.0044806687  0.0119978345  0.0156693935 -0.0155559576 -0.0028517203  
153.1250000000  3.1250000000  8.4877056415  2.4140296349 -0.0001508566 264.6735276442  0.0356348808  0.0598442041  0.0201895017 -0.0212628053 -0.0046811617  0.0038129004  0.0128867984  0.0136206544 -0.0194514495 -0.0023716310  
159.3750000000  3.1250000000  8.6271972656  2.1644172082 -0.0003424549 264.7660757212  0.0259408199  0.0653842413  0.0187812603 -0.0190275632 -0.0027717104  0.0029793881  0.0138308085  0.0104135403 -0.0241807919 -0.0017086373  
165.6250000000  3.1250000000  8.7199002779  1.8669216449 -0.0003179801 264.8720552885  0.0186525290  0.0639665163  0.0174339533 -0.0097161531 -0.0015603985  0.0024370363  0.0141135381  0.0056931564 -0.0270336866 -0.0013355277  
171.8750000000  3.1250000000  8.7485736553  1.5343752348 -0.0003251420 264.9935096154  0.0166407292  0.0558001555  0.0159155992  0.0012038207 -0.0009058522  0.0020147532  0.0138060661  0.0003341081 -0.0259858645 -0.0011113762  
178.1250000000  3.1250000000  8.7004957933  1.1970575186 -0.0003666353 265.1272836538  0.0190019314  0.0447763663  0.0139788123  0.0116958059 -0.0006151511  0.0015124745  0.0142314819 -0.0061920161 -0.0240500358 -0.0009207003  
184.3750000000  3.1250000000  8.5652062049  0.8600729722  0.0000150921 265.2844651442  0.0220869266  0.0343760380  0.0118640698  0.0189695633 -0.0002697353  0.0011318054  0.0166729560 -0.0122851693 -0.0228009994 -0.0008780702  
190.6250000000  3.1250000000  8.3565833459  0.5276307326  0.0000626579 265.4815805288  0.0199343755  0.0234119800  0.0102664049  0.0206077942 -0.0003236247  0.0003786807  0.0194261661 -0.0173995733 -0.0223321841 -0.0003694415  
196.8750000000  3.1250000000  8.1286104642  0.2341899578 -0.0001573551 265.7275540865  0.0118191994  0.0104670791  0.0086865553  0.0129363583 -0.0004159814  0.0000042555  0.0162807208 -0.0157770249 -0.0175264597 -0.0000068080  
203.1250000000  3.1250000000  7.9702261118  0.0326920033 -0.0002409136 265.9721754808  0.0046694843  0.0028404027  0.0070425034  0.0035112404 -0.0004051705  0.0000066012  0.0080694822 -0.0072170267 -0.0066572529  0.0000300311  
209.3750000000  3.1250000000  7.9259239784 -0.0483060727 -0.0003891098 266.1412560096  0.0021889233  0.0017971753  0.0056021846  0.0000294387 -0.0003669507  0.0000589467  0.0022715695 -0.0012874178 -0.0000515477  0.0000498828  
215.6250000000  3.1250000000  7.9576124925 -0.0432264548 -0.0002247905 266.2283653846  0.0016447805  0.0019333438  0.0044703529 -0.0000321955 -0.0003539440  0.0001112156  0.0004772495 -0.0000186957  0.0007830859  0.0000259915  
221.8750000000  3.1250000000  8.0016733023 -0.0073485562 -0.0001056973 266.2683593750  0.0014440812  0.0013417587  0.0036401368 -0.0002333678 -0.0003578867  0.0001272854  0.0002968831 -0.0000485057  0.0004271444 -0.0000046788  
228.1250000000  3.1250000000  8.0180382362  0.0146833612 -0.0000611995 266.3061899038  0.0013884849  0.0007963028  0.0030271276 -0.0003913683 -0.0003610191  0.0001262731  0.0005392112 -0.0002375062  0.0002788685 -0.0000077248  
234.3750000000  3.1250000000  8.0096839318  0.0143961934  0.0000173375 266.3631911058  0.0012631482  0.0005671845  0.0025581942 -0.0002961665 -0.0003636736  0.0001170042  0.0007481443 -0.0004273333  0.0001435270 -0.0000008166  
240.6250000000  3.1250000000  7.9976215069  0.0055170472 -0.0000386601 266.4328425481  0.0011039467  0.0004685895  0.0021901702 -0.0002296109 -0.0003640157  0.0001131237  0.0007097537 -0.0004052793  0.0001134462  0.0000034202  
246.8750000000  3.1250000000  7.9944260817  0.0012593039 -0.0000765826 266.5019531250  0.0009998707  0.0004100410  0.0019001510 -0.0002037579 -0.0003627672  0.0001140330  0.0005666357 -0.0002721457  0.0001355757  0.0000031253  
253.1250000000  3.1250000000  7.9976590670  0.0028620057 -0.0000134227 266.5649338942  0.0009474673  0.0003476251  0.0016670381 -0.0001709065 -0.0003655819  0.0001137633  0.0004857180 -0.0001925215  0.0001274198  0.0000015551  
259.3750000000  3.1250000000  8.0002291166  0.0048364451  0.0000461662 266.6253605769  0.0009213829  0.0002853982  0.0014742089 -0.0001402210 -0.0003743064  0.0001096145  0.0004830920 -0.0001841932  0.0001027176  0.0000017568  
265.6250000000  3.1250000000  7.9998619666  0.0045281387  0.0000988859 266.6865985577  0.0008910432  0.0002384224  0.0013074081 -0.0001204656 -0.0003817752  0.0001013040  0.0004970982 -0.0001947307  0.0000873928  0.0000036710  
271.8750000000  3.1250000000  7.9986647386  0.0033961108  0.0001470020 266.7489182692  0.0008492623  0.0002071041  0.0011541547 -0.0001061695 -0.0003826794  0.0000894972  0.0004800920 -0.0001960594  0.0000831004  0.0000026479  
278.1250000000  3.1250000000  7.9986309345  0.0028992614  0.0001541466 266.8116286058  0.0008162720  0.0001817697  0.0010072788 -0.0000879021 -0.0003769052  0.0000773387  0.0004419892 -0.0001955494  0.0000805802 -0.0000027180  
284.3750000000  3.1250000000  7.9993736854  0.0030805824  0.0001214435 266.8751201923  0.0007874914  0.0001602852  0.0008660081 -0.0000758726 -0.0003664031  0.0000682964  0.0004080651 -0.0001952534  0.0000790301 -0.0000077922  
290.6250000000  3.1250000000  7.9990732046  0.0036111756  0.0000616988 266.9397235577  0.0007511420  0.0001429777  0.0007300450 -0.0000765509 -0.0003523283  0.0000639224  0.0003673415 -0.0001960746  0.0000763697 -0.0000079662  
296.8750000000  3.1250000000  7.9967153696  0.0041274346  0.0000034784 267.0052584135  0.0007176130  0.0001299085  0.0005982000 -0.0000704650 -0.0003363104  0.0000609713  0.0002951524 -0.0002009926  0.0000627296 -0.0000064718  
303.1250000000  3.1250000000  7.9934720553  0.0037748057 -0.0000030584 267.0689002404  0.0006877076  0.0001220691  0.0004729553 -0.0000534769 -0.0003071877  0.0000557099  0.0002072354 -0.0001838413  0.0000450752 -0.0000140578  
309.3750000000  3.1250000000  7.9937584510  0.0021048344  0.0000314243 267.1283052885  0.0006334752  0.0001139584  0.0003565497 -0.0000395021 -0.0002526482  0.0000464040  0.0001392998 -0.0001433702  0.0000360678 -0.0000291296  
315.6250000000  3.1250000000  7.9962918795  0.0010571067  0.0000730677 267.1882812500  0.0005415890  0.0000978311  0.0002537353 -0.0000333727 -0.0001810794  0.0000345303  0.0000886109 -0.0001108962  0.0000322304 -0.0000377466  
321.8750000000  3.1250000000  7.9981464093  0.0005809673  0.0000874028 267.2500000000  0.0004176544  0.0000762112  0.0001718723 -0.0000285805 -0.0001129909  0.0000229808  0.0000492820 -0.0000766983  0.0000244695 -0.0000353831  
328.1250000000  3.1250000000  7.9991774339  0.0003042123  0.0000791117 267.3124399038  0.0002929863  0.0000563424  0.0001136305 -0.0000224896 -0.0000634724  0.0000139682  0.0000246097 -0.0000452754  0.0000158848 -0.0000269621  
334.3750000000  3.1250000000  7.9996657151  0.0001570572  0.0000654366 267.3749699519  0.0001958016  0.0000409050  0.0000747544 -0.0000161203 -0.0000336107  0.0000080436  0.0000118430 -0.0000246097  0.0000095013 -0.0000182712  
340.6250000000  3.1250000000  7.9998657227  0.0000859070  0.0000531670 267.4375000000  0.0001297242  0.0000295772  0.0000493120 -0.0000109550 -0.0000173938  0.0000045074  0.0000057528 -0.0000131423  0.0000055071 -0.0000116966  
346.8750000000  3.1250000000  7.9999417819  0.0000514724  0.0000432052 267.5000000000  0.0000873155  0.0000214895  0.0000325977 -0.0000073703 -0.0000089662  0.0000024672  0.0000028733 -0.0000071489  0.0000031984 -0.0000073058  
353.1250000000  3.1250000000  7.9999746469  0.0000334943  0.0000351259 267.5625000000  0.0000605329  0.0000158207  0.0000214774 -0.0000050228 -0.0000046414  0.0000013162  0.0000014779 -0.0000040186  0.0000018884 -0.0000045061  
359.3750000000  3.1250000000  7.9999859150  0.0000233507  0.0000284282 267.6250000000  0.0000435759  0.0000119043  0.0000139744 -0.0000035063 -0.0000024248  0.0000006856  0.0000007772 -0.0000023422  0.0000011392 -0.0000027449  
365.6250000000  3.1250000000  7.9999915490  0.0000172921  0.0000227316 267.6875000000  0.0000327514  0.0000092304  0.0000088544 -0.0000025278 -0.0000012895  0.0000003531  0.0000004123 -0.0000014116  0.0000007023 -0.0000016372  
371.8750000000  3.1250000000  7.9999934270  0.0000135336  0.0000177587 267.7500000000  0.0000258074  0.0000074282  0.0000053430 -0.0000018965 -0.0000007128  0.0000000001876  0.0000002157 -0.0000008725  0.0000004402 -0.0000009383  
378.1250000000  3.1250000000  7.9999962440  0.0000111658  0.0000133016 267.8125000000  0.0000213930  0.0000062412  0.0000029530 -0.0000014916 -0.0000004279  0.0000000001138  0.0000001070 -0.0000005439  0.0000002767 -0.0000004978  
384.3750000000  3.1250000000  7.9999962440  0.0000097030  0.0000091969 267.8750000000  0.0000187150  0.0000055026  0.0000013795 -0.0000012384 -0.0000002965  0.0000000898  0.0000000463 -0.0000003303  0.0000000001688 -0.0000002258  
390.6250000000  3.1250000000  7.9999962440  0.0000088599  0.0000053144 267.9375000000  0.0000173108  0.0000051067  0.0000004383 -0.0000010924 -0.0000002434  0.0000000914  0.0000000140 -0.0000000001783  0.0000000916 -0.0000000704  
396.8750000000  3.1250000000  7.9999962440  0.0000087625  0.0000015247 268.0000000000  0.0000042209  0.0000012460  0.0000000318 -0.0000010272 -0.0000000001116  0.0000000518  0.0000000054 -0.0000000562  0.0000000298 -0.0000000098  
403.1250000000  3.1250000000  8.0000000000  0.000001  0.0000000001 268.0625000000  0.0000001  0.0000001  0.0000001  0.0000001  0.0000001  0.0000001  0.0000001  0.0000001  0.0000001  0.0000001  
 0.000001  9.3750000000  0.0000000001  0.0000001  0.0000001 263.1249699519  0.0204401108  0.0145480468  0.0000001  0.0000001  0.0000001  0.0000001  0.0002168107  0.0000001  0.0000001  0.0000001  
 3.1250000000  9.3750000000  1.9453716572  1.4566773635 -0.0000103147 263.5018329327  0.1235653657  0.0823002815  0.0055842345  0.0332298242 -0.0097958235 -0.0058851279  0.0012093557  0.0053128165  0.0040529457 -0.0010473287  
 9.3750000000  9.3750000000  2.6515484150  1.9444799570  0.0000930277 263.5652644231  0.2293977884  0.1340697068  0.0211673682  0.0924082022 -0.0315449678 -0.0192975044  0.0024233499  0.0145484741  0.0099981381 -0.0038450771  
15.6250000000  9.3750000000  3.3257476807  2.3599205604  0.0003183954 263.6327223558  0.2779499347  0.1590908784  0.0385915023  0.1304944258 -0.0446967162 -0.0254115306  0.0037291222  0.0263808562  0.0160993906 -0.0060205052  
21.8750000000  9.3750000000  3.7322866587  2.5743412898  0.0003992634 263.6850060096  0.2586598910  0.1557937329  0.0520702949  0.0986718765 -0.0446877736 -0.0224160378  0.0043007374  0.0266727686  0.0152889022 -0.0065666011  
28.1250000000  9.3750000000  4.0846604567  2.7432760385  0.0003262461 263.7308293269  0.2422631631  0.1512765738  0.0605769598  0.0765362886 -0.0451562808 -0.0201422215  0.0046287798  0.0262965991  0.0144281002 -0.0068250005  
34.3750000000  9.3750000000  4.3918212891  2.8725928673 -0.0000641459 263.7718750000  0.2291753769  0.1423642672  0.0635783195  0.0608913898 -0.0451308947 -0.0182793782  0.0048206283  0.0248373343  0.0130806850 -0.0068790491  
40.6250000000  9.3750000000  4.6616192157  2.9783228948 -0.0005842804 263.8095853365  0.2143237921  0.1333775594  0.0637360793  0.0501304296 -0.0434950168 -0.0168941938  0.0050062936  0.0240981909  0.0111315425 -0.0067404036  
46.8750000000  9.3750000000  4.9127361591  3.0628410926 -0.0007048426 263.8451923077  0.2000937242  0.1225488149  0.0629216634  0.0393878240 -0.0411974393 -0.0150875312  0.0052508914  0.0234311251  0.0093132899 -0.0065781960  
53.1250000000  9.3750000000  5.1520526593  3.1351226807 -0.0007380114 263.8797175481  0.1876274696  0.1104027455  0.0605628050  0.0330425849 -0.0388483011 -0.0130585148  0.0055608832  0.0227776399  0.0083576725 -0.0065018846  
59.3750000000  9.3750000000  5.3817960299  3.1967536339 -0.0004979987 263.9137319712  0.1745866335  0.1012465330  0.0570635612  0.0279066324 -0.0367335576 -0.0106125107  0.0058740322  0.0223602387  0.0072943903 -0.0063365148  
65.6250000000  9.3750000000  5.6036409818  3.2421043983 -0.0002456885 263.9483173077  0.1625035653  0.0952767592  0.0538530240  0.0216519613 -0.0344502669 -0.0076780961  0.0061407094  0.0221631729  0.0056763397 -0.0060440265  
71.8750000000  9.3750000000  5.8200138972  3.2698148287 -0.0001865133 263.9839843750  0.1537378311  0.0905630845  0.0510540449  0.0175832675 -0.0327896522 -0.0051511957  0.0064302284  0.0218503970  0.0045968514 -0.0059276938  
78.1250000000  9.3750000000  6.0274733323  3.2811589168 -0.0001217404 264.0189302885  0.1470719558  0.0852872555  0.0488503603  0.0134591561 -0.0315485587 -0.0028985645  0.0067327499  0.0217963237  0.0037168340 -0.0058643451  
84.3750000000  9.3750000000  6.2280592698  3.2880455604 -0.0001287829 264.0539663462  0.1427737456  0.0797578005  0.0466152815  0.0084176100 -0.0297428094 -0.0011155589  0.0070664076  0.0217330309  0.0024172583 -0.0057401056  
90.6250000000  9.3750000000  6.4277536245  3.2984299880 -0.0001649817 264.0911959135  0.1399081010  0.0729589682  0.0437982486  0.0038216488 -0.0274904765  0.0000059127  0.0074514650  0.0220520185  0.0011010579 -0.0055051276  
96.8750000000  9.3750000000  6.6311992939  3.3032759446 -0.0000052192 264.1306189904  0.1330563325  0.0661615298  0.0414649266 -0.0014785005 -0.0246601288  0.0012605342  0.0077968487  0.0226554852 -0.0007688944 -0.0051100832  
103.1250000000  9.3750000000  6.8425931490  3.2927018386  0.0001537616 264.1722355769  0.1226659921  0.0621013421  0.0392855094 -0.0076601116 -0.0218706094  0.0025527972  0.0081476679  0.0223212315 -0.0028411680 -0.0047037010  
109.3750000000  9.3750000000  7.0600989709  3.2597250131  0.0002109944 264.2167968750  0.1137260217  0.0593110598  0.0369353478 -0.0104858545 -0.0194171172  0.0035053661  0.0087243071  0.0222190215 -0.0048691447 -0.0043944189  
115.6250000000  9.3750000000  7.2801311786  3.2049084003  0.0002289627 264.2651742788  0.1053857877  0.0559729613  0.0343197896 -0.0145627902 -0.0171175498  0.0045046770  0.0094440955  0.0226413452 -0.0061803891 -0.0040980655  
121.8750000000  9.3750000000  7.4977773813  3.1364217905  0.0001853601 264.3189603365  0.0960178889  0.0545009393  0.0312683472 -0.0183984628 -0.0149021543  0.0049644369  0.0101364814  0.0224199423 -0.0078345024 -0.0037707835  
128.1250000000  9.3750000000  7.7142878606  3.0489717924  0.0000405715 264.3794170673  0.0832892271  0.0529652082  0.0285192801 -0.0208760243 -0.0129932009  0.0048205756  0.0107519333  0.0215886043 -0.0096727014 -0.0035270707  
134.3750000000  9.3750000000  7.9253464919  2.9327986497 -0.0000381123 264.4444711538  0.0689725509  0.0505585524  0.0257429343 -0.0217310887 -0.0108778926  0.0047391227  0.0111581674  0.0194888904 -0.0114043282 -0.0033006897  
140.6250000000  9.3750000000  8.1250920222  2.7889477070 -0.0000589585 264.5137620192  0.0569221130  0.0497774858  0.0230541211 -0.0202458015 -0.0088335266  0.0047571054  0.0114915463  0.0172729749 -0.0129541535 -0.0031140951  
146.8750000000  9.3750000000  8.3158822867  2.6203948975 -0.0000525277 264.5896935096  0.0459387119  0.0532092131  0.0213771086 -0.0204373378 -0.0069597318  0.0045204704  0.0119829270  0.0156483944 -0.0155083748 -0.0028488544  
153.1250000000  9.3750000000  8.4873347356  2.4141270564 -0.0001872771 264.6733774038  0.0357044183  0.0597586375  0.0201976299 -0.0212502241 -0.0046623280  0.0038245914  0.0128918767  0.0136227241 -0.0194424024 -0.0023560657  
159.3750000000  9.3750000000  8.6269155649  2.1645946796 -0.0004050612 264.7658052885  0.0258998816  0.0652636748  0.0187887247 -0.0189306149 -0.0027550447  0.0029558571  0.0138170380  0.0103817050 -0.0241882563 -0.0016914504  
165.6250000000  9.3750000000  8.7198495718  1.8668766902 -0.0003734673 264.8721153846  0.0186210376  0.0637231827  0.0174072853 -0.0095392502 -0.0015692364  0.0024475373  0.0140666274  0.0056500733 -0.0270019825 -0.0013520704  
171.8750000000  9.3750000000  8.7486544096  1.5343651405 -0.0003471481 264.9933894231  0.0167041558  0.0554758439  0.0158954694  0.0013830728 -0.0009939237  0.0020739840  0.0137168517  0.0002524649 -0.0258571698 -0.0011507078  
178.1250000000  9.3750000000  8.7008920523  1.1970976609 -0.0003437349 265.1272536058  0.0190082458  0.0445749540  0.0139841061  0.0115593131 -0.0006495322  0.0016029469  0.0141648329 -0.0060545059 -0.0238399836 -0.0010106184  
184.3750000000  9.3750000000  8.5650428185  0.8596977821 -0.0000583917 265.2847355769  0.0221733478  0.0345315676  0.0118779953  0.0188861132 -0.0001881495  0.0011837657  0.0167078788 -0.0122352921 -0.0227457212 -0.0009663810  
190.6250000000  9.3750000000  8.3561758188  0.5276026799 -0.0000449514 265.4816706731  0.0201081074  0.0235940787  0.0103367778  0.0209027400 -0.0002062683  0.0003826508  0.0195180361 -0.0175643664 -0.0225318890 -0.0004493077  
196.8750000000  9.3750000000  8.1284677359  0.2344212899 -0.0001449445 265.7274338942  0.0119858302  0.0104664518  0.0087630309  0.0131289482 -0.0003836690  0.0000026325  0.0163455395 -0.0159139670 -0.0175767422 -0.0000487851  
203.1250000000  9.3750000000  7.9704448993  0.0327811608 -0.0002910389 265.9721153846  0.0047501413  0.0028227708  0.0071170046  0.0035940982 -0.0004056889  0.0000025286  0.0081007875 -0.0073527409 -0.0066309003  0.0000264577  
209.3750000000  9.3750000000  7.9260667067 -0.0481544568 -0.0002405620 266.1410456731  0.0022082943  0.0017998489  0.0056424311  0.0000149699 -0.0003697486  0.0000560871  0.0022848686 -0.0013134171 -0.0000231133  0.0000512293  
215.6250000000  9.3750000000  7.9578613281 -0.0433887738 -0.0003005095 266.2281550481  0.0016566397  0.0019493979  0.0044962333 -0.0000290134 -0.0003559793  0.0001097117  0.0004826299 -0.0000135956  0.0007908919  0.0000252848  
221.8750000000  9.3750000000  8.0018460787 -0.0074662640 -0.0002000171 266.2682091346  0.0014449963  0.0013482971  0.0036506504 -0.0002406699 -0.0003530655  0.0001259728  0.0002971841 -0.0000452169  0.0004306524 -0.0000040045  
228.1250000000  9.3750000000  8.0180757963  0.0146402020 -0.0000887527 266.3062199519  0.0013874098  0.0008014444  0.0030263596 -0.0003961217 -0.0003545338  0.0001239665  0.0005378741 -0.0002351357  0.0002768244 -0.0000076387  
234.3750000000  9.3750000000  8.0097280649  0.0143187596 -0.0000466121 266.3631610577  0.0012630717  0.0005715975  0.0025537014 -0.0002971618 -0.0003567493  0.0001165943  0.0007467476 -0.0004263330  0.0001418783 -0.0000009494  
240.6250000000  9.3750000000  7.9977003831  0.0055737252 -0.0001225790 266.4328425481  0.0011046882  0.0004715350  0.0021864852 -0.0002271752 -0.0003582086  0.0001154012  0.0007082658 -0.0004081914  0.0001136932  0.0000034785  
246.8750000000  9.3750000000  7.9944918119  0.0012976894 -0.0001471666 266.5019531250  0.0010005575  0.0004119297  0.0018998441 -0.0002001866 -0.0003591218  0.0001173232  0.0005665196 -0.0002746367  0.0001373197  0.0000030236  
253.1250000000  9.3750000000  7.9976825421  0.0027992806 -0.0000510414 266.5652343750  0.0009458186  0.0003480216  0.0016718273 -0.0001666293 -0.0003638655  0.0001161932  0.0004886284 -0.0001924620  0.0001296156  0.0000016139  
259.3750000000  9.3750000000  8.0001943735  0.0047772320  0.0000343278 266.6253906250  0.0009166250  0.0002845419  0.0014838386 -0.0001338687 -0.0003739465  0.0001103799  0.0004895121 -0.0001835201  0.0001040483  0.0000019688  
265.6250000000  9.3750000000  7.9997136043  0.0044756738  0.0000846405 266.6865985577  0.0008864270  0.0002380366  0.0013192784 -0.0001135349 -0.0003825795  0.0001016432  0.0005060662 -0.0001971310  0.0000854962  0.0000040444  
271.8750000000  9.3750000000  7.9984074519  0.0033481112  0.0001259139 266.7489182692  0.0008483985  0.0002079569  0.0011653092 -0.0001001883 -0.0003840369  0.0000908833  0.0004886985 -0.0002017163  0.0000790683  0.0000032678  
278.1250000000  9.3750000000  7.9983501728  0.0028920440  0.0001364998 266.8115985577  0.0008178452  0.0001835989  0.0010161628 -0.0000837998 -0.0003784472  0.0000802463  0.0004480128 -0.0002013242  0.0000762282 -0.0000020629  
284.3750000000  9.3750000000  7.9991605319  0.0031130119  0.0000988161 266.8750901442  0.0007911214  0.0001620812  0.0008718149 -0.0000735210 -0.0003681409  0.0000726960  0.0004119650 -0.0001994827  0.0000749881 -0.0000073468  
290.6250000000  9.3750000000  7.9989314153  0.0036706560  0.0000293040 266.9397235577  0.0007560084  0.0001445460  0.0007331588 -0.0000759070 -0.0003542362  0.0000691039  0.0003703351 -0.0001986179  0.0000722807 -0.0000074831  
296.8750000000  9.3750000000  7.9965876653  0.0041857009 -0.0000208262 267.0052584135  0.0007214127  0.0001318442  0.0006000549 -0.0000715120 -0.0003383267  0.0000660766  0.0002976541 -0.0002026322  0.0000598583 -0.0000059887  
303.1250000000  9.3750000000  7.9933556190  0.0037818015 -0.0000075735 267.0690805288  0.0006911531  0.0001237993  0.0004746549 -0.0000577837 -0.0003093092  0.0000600094  0.0002094624 -0.0001853482  0.0000444928 -0.0000139074  
309.3750000000  9.3750000000  7.9936692458  0.0020709421  0.0000365779 267.1283353365  0.0006373032  0.0001148539  0.0003582251 -0.0000463182 -0.0002546582  0.0000491512  0.0001412146 -0.0001449260  0.0000367147 -0.0000292042  
315.6250000000  9.3750000000  7.9962439904  0.0010158741  0.0000736451 267.1882812500  0.0005451408  0.0000979474  0.0002551502 -0.0000392872 -0.0001827934  0.0000358437  0.0000896796 -0.0001122903  0.0000329793 -0.0000379802  
321.8750000000  9.3750000000  7.9981229342  0.0005669255  0.0000817247 267.2500000000  0.0004203714  0.0000761632  0.0001729076 -0.0000321267 -0.0001140972  0.0000235258  0.0000497553 -0.0000775043  0.0000247799 -0.0000357258  
328.1250000000  9.3750000000  7.9991680439  0.0003127730  0.0000734727 267.3124699519  0.0002948063  0.0000563279  0.0001143298 -0.0000243256 -0.0000639982  0.0000142229  0.0000248432 -0.0000456377  0.0000159893 -0.0000272569  
334.3750000000  9.3750000000  7.9996638371  0.0001709684  0.0000617026 267.3749699519  0.0001969290  0.0000408978  0.0000752091 -0.0000170869 -0.0000338257  0.0000081913  0.0000119603 -0.0000247953  0.0000095360 -0.0000184654  
340.6250000000  9.3750000000  7.9998647837  0.0000983572  0.0000507532 267.4375000000  0.0001303866  0.0000295710  0.0000495979 -0.0000114817 -0.0000174752  0.0000046021  0.0000058073 -0.0000132350  0.0000055111 -0.0000118099  
346.8750000000  9.3750000000  7.9999408428  0.0000615549  0.0000415230 267.5000000000  0.0000877009  0.0000214866  0.0000327736 -0.0000076633 -0.0000089936  0.0000025303  0.0000028978 -0.0000071922  0.0000031925 -0.0000073684  
353.1250000000  9.3750000000  7.9999718299  0.0000416419  0.0000338837 267.5625000000  0.0000607627  0.0000158199  0.0000215844 -0.0000051897 -0.0000046482  0.0000013594  0.0000014890 -0.0000040388  0.0000018812 -0.0000045401  
359.3750000000  9.3750000000  7.9999849760  0.0000300759  0.0000274852 267.6250000000  0.0000437191  0.0000119046  0.0000140389 -0.0000036045 -0.0000024242  0.0000007159  0.0000007824 -0.0000023521  0.0000011332 -0.0000027632  
365.6250000000  9.3750000000  7.9999915490  0.0000229871  0.0000220120 267.6875000000  0.0000328457  0.0000092313  0.0000088924 -0.0000025881 -0.0000012867  0.0000003746  0.0000004148 -0.0000014168  0.0000006978 -0.0000016470  
371.8750000000  9.3750000000  7.9999943660  0.0000184857  0.0000172180 267.7500000000  0.0000258734  0.0000074293  0.0000053646 -0.0000019353 -0.0000007098  0.0000002028  0.0000002169 -0.0000008754  0.0000004369 -0.0000009434  
378.1250000000  9.3750000000  7.9999953050  0.0000155902  0.0000129122 267.8125000000  0.0000214426  0.0000062425  0.0000029643 -0.0000015182 -0.0000004254  0.0000000001243  0.0000001075 -0.0000005456  0.0000002744 -0.0000005003  
384.3750000000  9.3750000000  7.9999953050  0.0000137682  0.0000089421 267.8750000000  0.0000187552  0.0000055040  0.0000013844 -0.0000012580 -0.0000002947  0.0000000966  0.0000000465 -0.0000003312  0.0000000001673 -0.0000002268  
390.6250000000  9.3750000000  7.9999971830  0.0000127002  0.0000051849 267.9375000000  0.0000173463  0.0000051081  0.0000004397 -0.0000011082 -0.0000002425  0.0000000950  0.0000000141 -0.0000000001788  0.0000000907 -0.0000000707  
396.8750000000  9.3750000000  7.9999962440  0.0000125101  0.0000015166 268.0000000000  0.0000042294  0.0000012463  0.0000000318 -0.0000010414 -0.0000000001115  0.0000000521  0.0000000054 -0.0000000564  0.0000000294 -0.0000000099  