VARIABLES = Y,Z,U,V,W,UU,VV,WW,UV,UW,VW 
ZONE I = 128 J = 159 
 0.0197584430  0.0013673446  0.0093215543 -0.0000095706 -0.0001749019  0.0000187225  0.0000000022  0.0000026425 -0.0000000862 -0.0000008178  0.0000000049 
 0.0197584430  0.0041816861  0.0284453700 -0.0000463227 -0.0004766151  0.0001746520  0.0000000527  0.0000212614 -0.0000013648 -0.0000072352  0.0000000680 
 0.0197584430  0.0071597210  0.0485936710 -0.0001172604 -0.0007325310  0.0005104464  0.0000003400  0.0000550767 -0.0000063051 -0.0000200146  0.0000002894 
 0.0197584430  0.0103104370  0.0697606330 -0.0002197004 -0.0009352298  0.0010505189  0.0000012097  0.0001010668 -0.0000180575 -0.0000387149  0.0000007737 
 0.0197584430  0.0136432490  0.0918911520 -0.0003496889 -0.0010771948  0.0018098892  0.0000031317  0.0001563288 -0.0000400497 -0.0000623132  0.0000016275 
 0.0197584430  0.0171680150  0.1148696900 -0.0005019496 -0.0011507203  0.0027845572  0.0000066595  0.0002181448 -0.0000752799 -0.0000891729  0.0000029535 
 0.0197584430  0.0208950430  0.1385178600 -0.0006699335 -0.0011479742  0.0039443546  0.0000123886  0.0002841059 -0.0001254086 -0.0001171516  0.0000048275 
 0.0197584430  0.0248351040  0.1626051300 -0.0008459642 -0.0010615618  0.0052340786  0.0000209156  0.0003522734 -0.0001900732 -0.0001439124  0.0000072459 
 0.0197584430  0.0289994430  0.1868720700 -0.0010213984 -0.0008859649  0.0065851455  0.0000327997  0.0004213640 -0.0002668664 -0.0001674850  0.0000100476 
 0.0197584430  0.0333997840  0.2110597200 -0.0011866599 -0.0006199932  0.0079321099  0.0000485275  0.0004909449 -0.0003520582 -0.0001870205  0.0000128438 
 0.0197584430  0.0380483390  0.2349359200 -0.0013310427 -0.0002698151  0.0092239180  0.0000684799  0.0005615652 -0.0004416595 -0.0002034114  0.0000150243 
 0.0197584430  0.0429578120  0.2583118800 -0.0014423769  0.0001485150  0.0104245980  0.0000928919  0.0006346483 -0.0005323143 -0.0002191679  0.0000158966 
 0.0197584430  0.0481414020  0.2810469200 -0.0015069453  0.0006083758  0.0115070020  0.0001218013  0.0007119894 -0.0006218107 -0.0002371386  0.0000149342 
 0.0197584430  0.0536128000  0.3030436500 -0.0015101747  0.0010747342  0.0124469830  0.0001550314  0.0007949199 -0.0007092249 -0.0002585496  0.0000120263 
 0.0197584430  0.0593861920  0.3242396300 -0.0014382774  0.0015093578  0.0132225560  0.0001922879  0.0008834347 -0.0007946797 -0.0002817323  0.0000076292 
 0.0197584430  0.0654762470  0.3446040500 -0.0012801860  0.0018783399  0.0138170780  0.0002333889  0.0009758650 -0.0008787612 -0.0003026859  0.0000027684 
 0.0197584430  0.0718981100  0.3641435800 -0.0010285318  0.0021601877  0.0142217750  0.0002784853  0.0010700021 -0.0009618373 -0.0003170108 -0.0000012236 
 0.0197584430  0.0786673890  0.3829126200 -0.0006791053  0.0023516204  0.0144344190  0.0003280587  0.0011655191 -0.0010435870 -0.0003215574 -0.0000033368 
 0.0197584430  0.0858001340  0.4010163800 -0.0002299135  0.0024673839  0.0144554200  0.0003826219  0.0012649653 -0.0011229955 -0.0003151271 -0.0000035662 
 0.0197584430  0.0933128140  0.4185945600  0.0003184562  0.0025325934  0.0142851450  0.0004423242  0.0013707661 -0.0011987683 -0.0002987364 -0.0000029916 
 0.0197584430  0.1012222900  0.4357807900  0.0009611471  0.0025725757  0.0139257210  0.0005068227  0.0014801440 -0.0012695684 -0.0002752065 -0.0000030299 
 0.0197584430  0.1095457800  0.4526524800  0.0016879048  0.0026079279  0.0133899150  0.0005755480  0.0015831342 -0.0013335602 -0.0002479776 -0.0000043106 
 0.0197584430  0.1183008000  0.4691968000  0.0024833569  0.0026558879  0.0127182770  0.0006480110  0.0016663005 -0.0013879342 -0.0002206012 -0.0000059033 
 0.0197584430  0.1275051600  0.4852924500  0.0033262980  0.0027322218  0.0119914590  0.0007236748  0.0017201788 -0.0014298954 -0.0001969109 -0.0000056710 
 0.0197584430  0.1371768600  0.5006930700  0.0041859127  0.0028477930  0.0113096520  0.0008014422  0.0017471257 -0.0014591131 -0.0001785668 -0.0000022354 
 0.0197584430  0.1473340300  0.5150677200  0.0050196057  0.0029970612  0.0107360870  0.0008796174  0.0017631432 -0.0014787435 -0.0001580009  0.0000027745 
 0.0197584430  0.1579949000  0.5281606700  0.0057800448  0.0031464938  0.0102633240  0.0009569413  0.0017864011 -0.0014930652 -0.0001155223  0.0000054442 
 0.0197584430  0.1691776600  0.5399263000  0.0064295788  0.0032405654  0.0098493526  0.0010333213  0.0018220237 -0.0015072698 -0.0000359607  0.0000032002 
 0.0197584430  0.1809004200  0.5504851000  0.0069503768  0.0032053845  0.0094720000  0.0011084855  0.0018616187 -0.0015303980  0.0000759646 -0.0000049414 
 0.0197584430  0.1931810600  0.5600805900  0.0073410580  0.0029613308  0.0091319761  0.0011809312  0.0018968906 -0.0015655733  0.0002085549 -0.0000189487 
 0.0197584430  0.2060371800  0.5690280700  0.0076054490  0.0024817845  0.0088160466  0.0012499431  0.0019261896 -0.0016069224  0.0003461682 -0.0000334179 
 0.0197584430  0.2194859000  0.5775584500  0.0077541356  0.0017763180  0.0084913986  0.0013180424  0.0019428939 -0.0016532067  0.0004656299 -0.0000409573 
 0.0197584430  0.2335437900  0.5857909500  0.0078078439  0.0009079340  0.0081415994  0.0013877017  0.0019420360 -0.0017017180  0.0005396170 -0.0000364604 
 0.0197584430  0.2482267400  0.5936950100  0.0077783328  0.0000970545  0.0077843147  0.0014555097  0.0019248432 -0.0017447843  0.0005450936 -0.0000204040 
 0.0197584430  0.2635497300  0.6010337900  0.0076458265 -0.0004512975  0.0074712120  0.0015133330  0.0018987470 -0.0017720132  0.0005226491 -0.0000055359 
 0.0197584430  0.2795267600  0.6076431700  0.0073626812 -0.0007502561  0.0072592484  0.0015533870  0.0018859044 -0.0017691835  0.0005407049  0.0000002398 
 0.0197584430  0.2961706300  0.6137816000  0.0069113732 -0.0009110630  0.0071272578  0.0015735502  0.0019043130 -0.0017313567  0.0005914980  0.0000060773 
 0.0197584430  0.3134928000  0.6200706200  0.0063663491 -0.0010124148  0.0069317585  0.0015758308  0.0019356945 -0.0016649718  0.0006384494  0.0000191575 
 0.0197584430  0.3315031900  0.6271009900  0.0058572296 -0.0011097828  0.0065317569  0.0015616086  0.0019491432 -0.0015861227  0.0006500933  0.0000355184 
 0.0197584430  0.3502099900  0.6348482500  0.0054846877 -0.0011960202  0.0059977907  0.0015334306  0.0019618257 -0.0015209011  0.0005938992  0.0000464658 
 0.0197584430  0.3696195000  0.6428953000  0.0052665278 -0.0012350920  0.0054775957  0.0014957697  0.0019903537 -0.0014808729  0.0004922080  0.0000510701 
 0.0197584430  0.3897359400  0.6510788700  0.0051152406 -0.0013250013  0.0050328395  0.0014544354  0.0020211895 -0.0014507496  0.0003819061  0.0000600372 
 0.0197584430  0.4105612500  0.6592572700  0.0049013545 -0.0016354493  0.0047048663  0.0014117126  0.0020586933 -0.0014083334  0.0002835918  0.0000739314 
 0.0197584430  0.4320949500  0.6673056300  0.0045602756 -0.0022810985  0.0044446233  0.0013661343  0.0020805654 -0.0013398969  0.0002446041  0.0000822858 
 0.0197584430  0.4543339100  0.6751683800  0.0041538576 -0.0030859347  0.0042135028  0.0013183359  0.0020304288 -0.0012522871  0.0002526369  0.0000807066 
 0.0197584430  0.4772722700  0.6826265900  0.0038374886 -0.0034969410  0.0040470182  0.0012719146  0.0019022761 -0.0011798820  0.0002380438  0.0000729620 
 0.0197584430  0.5009012200  0.6893176300  0.0037147788 -0.0032183636  0.0039652340  0.0012295846  0.0017589355 -0.0011470682  0.0002153954  0.0000590143 
 0.0197584430  0.5252089400  0.6955790100  0.0037528754 -0.0025796870  0.0038551174  0.0011858636  0.0016418069 -0.0011245687  0.0002331334  0.0000326325 
 0.0197584430  0.5501804400  0.7017384400  0.0038150657 -0.0019527460  0.0037105672  0.0011354946  0.0015298777 -0.0010830283  0.0002440366  0.0000107439 
 0.0197584430  0.5757975200  0.7077080600  0.0037580214 -0.0014374715  0.0035485253  0.0010870913  0.0014106628 -0.0010240623  0.0002157519  0.0000087106 
 0.0197584430  0.6020386800  0.7134502700  0.0035272889 -0.0008561743  0.0034078367  0.0010479930  0.0012994570 -0.0009685170  0.0001554397  0.0000261544 
 0.0197584430  0.6288791200  0.7192355900  0.0031678866 -0.0001179115  0.0032600512  0.0010148052  0.0011882131 -0.0009157943  0.0000957000  0.0000468887 
 0.0197584430  0.6562907500  0.7251819200  0.0027670337  0.0007579586  0.0031154250  0.0009802005  0.0010721505 -0.0008569512  0.0000549811  0.0000529084 
 0.0197584430  0.6842422000  0.7308376900  0.0023491433  0.0016421876  0.0029438757  0.0009387825  0.0009906233 -0.0007774448  0.0000378171  0.0000398801 
 0.0197584430  0.7126989400  0.7359851800  0.0018841730  0.0022097778  0.0027225002  0.0008951537  0.0009556071 -0.0006790218  0.0000419474  0.0000240422 
 0.0197584430  0.7416233400  0.7410485700  0.0014295241  0.0023624035  0.0024831349  0.0008562432  0.0009312875 -0.0005854981  0.0000427783  0.0000224099 
 0.0197584430  0.7709749000  0.7460634400  0.0010919457  0.0023666596  0.0022609599  0.0008220508  0.0009070711 -0.0005130111  0.0000363184  0.0000319049 
 0.0197584430  0.8007103400  0.7509969100  0.0008775320  0.0024100926  0.0020383216  0.0007903774  0.0008893174 -0.0004487849  0.0000229386  0.0000441088 
 0.0197584430  0.8307839000  0.7557509900  0.0007022390  0.0024883695  0.0018143248  0.0007597176  0.0008703829 -0.0003833752  0.0000022803  0.0000552421 
 0.0197584430  0.8611475900  0.7599601500  0.0004768694  0.0024888528  0.0016314082  0.0007278711  0.0008371918 -0.0003186435 -0.0000081114  0.0000586952 
 0.0197584430  0.8917514200  0.7635976900  0.0001647499  0.0024671579  0.0014685823  0.0006945938  0.0007956502 -0.0002468628 -0.0000039106  0.0000497473 
 0.0197584430  0.9225437800  0.7667129500 -0.0002157239  0.0025695810  0.0013164000  0.0006614495  0.0007647710 -0.0001705111 -0.0000020175  0.0000333465 
 0.0197584430  0.9534717500  0.7689540000 -0.0006342016  0.0028082023  0.0011866881  0.0006331045  0.0007411628 -0.0000905111 -0.0000071658  0.0000156275 
 0.0197584430  0.9844814800  0.7700850700 -0.0010734426  0.0030452655  0.0011049888  0.0006181903  0.0007255174 -0.0000026715 -0.0000108638 -0.0000015259 
 0.0197584430  1.0155185000  0.7701491500 -0.0015111973  0.0031188178  0.0010889192  0.0006258841  0.0007281847  0.0000839720 -0.0000049163 -0.0000143562 
 0.0197584430  1.0465282000  0.7690778300 -0.0019220865  0.0030264370  0.0011260987  0.0006575832  0.0007464911  0.0001555837  0.0000115891 -0.0000184109 
 0.0197584430  1.0774562000  0.7673228000 -0.0022818159  0.0028713355  0.0012007196  0.0007090462  0.0007723643  0.0002211652  0.0000124558 -0.0000257328 
 0.0197584430  1.1082486000  0.7654668600 -0.0025557999  0.0027078651  0.0012304435  0.0007723623  0.0008124320  0.0002732111  0.0000023472 -0.0000419019 
 0.0197584430  1.1388524000  0.7632484200 -0.0027298532  0.0026440327  0.0012470213  0.0008303058  0.0008510024  0.0003140673 -0.0000170846 -0.0000612453 
 0.0197584430  1.1692161000  0.7602133300 -0.0028026651  0.0025610837  0.0013223829  0.0008731306  0.0008752227  0.0003650982 -0.0000490161 -0.0000720136 
 0.0197584430  1.1992897000  0.7565132300 -0.0027624143  0.0022288507  0.0014680700  0.0008987168  0.0008839866  0.0004340132 -0.0000804687 -0.0000614156 
 0.0197584430  1.2290251000  0.7527305500 -0.0026252049  0.0016660503  0.0016148010  0.0009081934  0.0008907928  0.0005014960 -0.0001068520 -0.0000324717 
 0.0197584430  1.2583767000  0.7491175300 -0.0024511388  0.0008969926  0.0017189980  0.0009086019  0.0009053558  0.0005525002 -0.0001197856  0.0000003472 
 0.0197584430  1.2873011000  0.7454907800 -0.0023017747 -0.0001193614  0.0018207899  0.0009092738  0.0009401412  0.0005912328 -0.0001013537  0.0000264415 
 0.0197584430  1.3157578000  0.7418374400 -0.0021929027 -0.0011277072  0.0019273286  0.0009125821  0.0009969250  0.0006244915 -0.0000699488  0.0000409405 
 0.0197584430  1.3437093000  0.7378236700 -0.0021164369 -0.0017861590  0.0020374655  0.0009145942  0.0010442744  0.0006622722 -0.0000623537  0.0000390350 
 0.0197584430  1.3711209000  0.7332661000 -0.0020691692 -0.0020038446  0.0021777372  0.0009148894  0.0010685825  0.0007012213 -0.0000690891  0.0000317775 
 0.0197584430  1.3979613000  0.7284594400 -0.0020135420 -0.0018876834  0.0022899745  0.0009187812  0.0010783825  0.0007245538 -0.0000751636  0.0000257464 
 0.0197584430  1.4242025000  0.7234421900 -0.0018958040 -0.0014985035  0.0023457402  0.0009302833  0.0011095983  0.0007380170 -0.0000741258  0.0000130175 
 0.0197584430  1.4498196000  0.7182983400 -0.0016905590 -0.0007148227  0.0023721559  0.0009493981  0.0011559813  0.0007459381 -0.0000748581 -0.0000028767 
 0.0197584430  1.4747911000  0.7131211400 -0.0014047499  0.0003782269  0.0024080956  0.0009727237  0.0012016284  0.0007454750 -0.0000854483 -0.0000146718 
 0.0197584430  1.4990988000  0.7078060900 -0.0010737068  0.0015078725  0.0025217699  0.0009965911  0.0012572379  0.0007488199 -0.0001074298 -0.0000266333 
 0.0197584430  1.5227277000  0.7023744400 -0.0007171028  0.0023585698  0.0027582687  0.0010213769  0.0013231587  0.0007718185 -0.0001468646 -0.0000452529 
 0.0197584430  1.5456661000  0.6970525200 -0.0003099906  0.0029708778  0.0030045094  0.0010534642  0.0014077438  0.0008143373 -0.0001943155 -0.0000681865 
 0.0197584430  1.5679051000  0.6917655800  0.0001632755  0.0033684183  0.0031598855  0.0010949707  0.0014952383  0.0008767098 -0.0002509568 -0.0000897436 
 0.0197584430  1.5894387000  0.6863452500  0.0006669824  0.0033570303  0.0033115903  0.0011420817  0.0015546705  0.0009607838 -0.0002967961 -0.0001016578 
 0.0197584430  1.6102641000  0.6810113800  0.0011370154  0.0028875463  0.0034616802  0.0011920072  0.0015832647  0.0010405170 -0.0002998153 -0.0000999612 
 0.0197584430  1.6303805000  0.6757484400  0.0015126363  0.0021742469  0.0036109602  0.0012433414  0.0016039316  0.0011043707 -0.0002678068 -0.0000927687 
 0.0197584430  1.6497900000  0.6703032900  0.0017969756  0.0014347584  0.0038145490  0.0012944603  0.0016244517  0.0011668918 -0.0002309389 -0.0000852737 
 0.0197584430  1.6684968000  0.6646436100  0.0020625910  0.0007288834  0.0040661743  0.0013357683  0.0016465514  0.0012310989 -0.0002083902 -0.0000755912 
 0.0197584430  1.6865072000  0.6588322000  0.0023490204 -0.0000111196  0.0043075458  0.0013556728  0.0016656339  0.0012839176 -0.0002164313 -0.0000648087 
 0.0197584430  1.7038294000  0.6527524700  0.0026233337 -0.0007892786  0.0045454346  0.0013554369  0.0016778898  0.0013204033 -0.0002454690 -0.0000583431 
 0.0197584430  1.7204732000  0.6463557600  0.0028487990 -0.0015267077  0.0047934057  0.0013459154  0.0016900828  0.0013466020 -0.0002805439 -0.0000551248 
 0.0197584430  1.7364503000  0.6396871800  0.0030315240 -0.0021347228  0.0050490670  0.0013341604  0.0017058231  0.0013619362 -0.0003120090 -0.0000501150 
 0.0197584430  1.7517733000  0.6325959100  0.0031944388 -0.0025220267  0.0053195648  0.0013205561  0.0017257601  0.0013617095 -0.0003330894 -0.0000372871 
 0.0197584430  1.7664562000  0.6248922700  0.0033394479 -0.0026333021  0.0056253533  0.0013023873  0.0017539995  0.0013503336 -0.0003310237 -0.0000153874 
 0.0197584430  1.7805141000  0.6166561800  0.0034500591 -0.0024737294  0.0059934347  0.0012757428  0.0017890956  0.0013400728 -0.0003009381  0.0000123036 
 0.0197584430  1.7939628000  0.6081202000  0.0035152036 -0.0021097194  0.0064336846  0.0012380648  0.0018223580  0.0013396472 -0.0002585970  0.0000416905 
 0.0197584430  1.8068189000  0.5994259000  0.0035361198 -0.0016615914  0.0069428195  0.0011882897  0.0018486985  0.0013554494 -0.0002186832  0.0000692304 
 0.0197584430  1.8190996000  0.5907172500  0.0035083563 -0.0012298461  0.0074617501  0.0011276071  0.0018742043  0.0013787331 -0.0001772364  0.0000899402 
 0.0197584430  1.8308223000  0.5819953800  0.0034142999 -0.0008375836  0.0078863770  0.0010594634  0.0019010405  0.0013906128 -0.0001339471  0.0000967780 
 0.0197584430  1.8420051000  0.5729660600  0.0032424251 -0.0005001703  0.0081986825  0.0009860944  0.0019178309  0.0013821276 -0.0000948607  0.0000859952 
 0.0197584430  1.8526660000  0.5632453600  0.0030026443 -0.0002625433  0.0084628908  0.0009080223  0.0019157194  0.0013552287 -0.0000661077  0.0000597870 
 0.0197584430  1.8628231000  0.5525379200  0.0027250510 -0.0001502475  0.0087515990  0.0008262757  0.0018909977  0.0013181371 -0.0000508526  0.0000255599 
 0.0197584430  1.8724948000  0.5406700100  0.0024498011 -0.0001541568  0.0090903940  0.0007431293  0.0018405512  0.0012775924 -0.0000459636 -0.0000079088 
 0.0197584430  1.8816992000  0.5275382100  0.0022108589 -0.0002487562  0.0094553016  0.0006607670  0.0017664347  0.0012356077 -0.0000508872 -0.0000349742 
 0.0197584430  1.8904542000  0.5130912100  0.0020239347 -0.0004059745  0.0098183912  0.0005806314  0.0016774622  0.0011936626 -0.0000732937 -0.0000538806 
 0.0197584430  1.8987777000  0.4973500400  0.0018878683 -0.0006030934  0.0101676580  0.0005040590  0.0015816808  0.0011527601 -0.0001215742 -0.0000648295 
 0.0197584430  1.9066872000  0.4803691900  0.0017926553 -0.0008267904  0.0104946810  0.0004326154  0.0014823564  0.0011097640 -0.0001963713 -0.0000688786 
 0.0197584430  1.9141999000  0.4621595500  0.0017248746 -0.0010743397  0.0107783780  0.0003677184  0.0013814428  0.0010583065 -0.0002883497 -0.0000678719 
 0.0197584430  1.9213326000  0.4426701000  0.0016703686 -0.0013512784  0.0109772210  0.0003101608  0.0012821736  0.0009938961 -0.0003837358 -0.0000640482 
 0.0197584430  1.9281019000  0.4218389800  0.0016166731 -0.0016645486  0.0110469980  0.0002599207  0.0011879957  0.0009166138 -0.0004725036 -0.0000593623 
 0.0197584430  1.9345238000  0.3996431800  0.0015549355 -0.0020136052  0.0109612040  0.0002162903  0.0011009207  0.0008295511 -0.0005510665 -0.0000550005 
 0.0197584430  1.9406138000  0.3761105000  0.0014803571 -0.0023847812  0.0107061600  0.0001782412  0.0010209960  0.0007366570 -0.0006186856 -0.0000512642 
 0.0197584430  1.9463872000  0.3513160100  0.0013913592 -0.0027526773  0.0102725660  0.0001448141  0.0009465971  0.0006417589 -0.0006732810 -0.0000478216 
 0.0197584430  1.9518586000  0.3253843800  0.0012882761 -0.0030870386  0.0096589858  0.0001153493  0.0008750436  0.0005481174 -0.0007106164 -0.0000441696 
 0.0197584430  1.9570422000  0.2984946100  0.0011723157 -0.0033602391  0.0088779788  0.0000895234  0.0008034288  0.0004581662 -0.0007261519 -0.0000400139 
 0.0197584430  1.9619517000  0.2708764900  0.0010451893 -0.0035517142  0.0079567684  0.0000672508  0.0007294530  0.0003734898 -0.0007170610 -0.0000353523 
 0.0197584430  1.9666002000  0.2427958700  0.0009093010 -0.0036487929  0.0069318452  0.0000485336  0.0006518416  0.0002950614 -0.0006828607 -0.0000303273 
 0.0197584430  1.9710006000  0.2145350900  0.0007680627 -0.0036453922  0.0058420820  0.0000333384  0.0005702622  0.0002237195 -0.0006249423 -0.0000250874 
 0.0197584430  1.9751649000  0.1863765200  0.0006259514 -0.0035402229  0.0047271450  0.0000215316  0.0004851266  0.0001606436 -0.0005462460 -0.0000197872 
 0.0197584430  1.9791050000  0.1585909800  0.0004881989 -0.0033353785  0.0036324909  0.0000128573  0.0003976121  0.0001074087 -0.0004516662 -0.0000146509 
 0.0197584430  1.9828320000  0.1314272300  0.0003602271 -0.0030354005  0.0026126136  0.0000069310  0.0003098390  0.0000654559 -0.0003485371 -0.0000099790 
 0.0197584430  1.9863568000  0.1050994400  0.0002470313 -0.0026466039  0.0017240345  0.0000032520  0.0002249614  0.0000353066 -0.0002461375 -0.0000060758 
 0.0197584430  1.9896896000  0.0797745210  0.0001526954 -0.0021765200  0.0010108020  0.0000012483  0.0001470531  0.0000160819 -0.0001540069 -0.0000031536 
 0.0197584430  1.9928403000  0.0555636460  0.0000801407 -0.0016334633  0.0004935161  0.0000003477  0.0000808417  0.0000056460 -0.0000799805 -0.0000012716 
 0.0197584430  1.9958183000  0.0325218090  0.0000311099 -0.0010262494  0.0001689413  0.0000000533  0.0000314046  0.0000012227 -0.0000290344 -0.0000003184 
 0.0197584430  1.9986327000  0.0106551670  0.0000063112 -0.0003640181  0.0000180566  0.0000000023  0.0000039177  0.0000000769 -0.0000033108 -0.0000000238 
 0.0592753300  0.0013673446  0.0088676184 -0.0000029174 -0.0000065974  0.0000152560  0.0000000016  0.0000025998 -0.0000000265 -0.0000000227  0.0000000064 
 0.0592753300  0.0041816861  0.0270577390 -0.0000140817 -0.0000292559  0.0001417501  0.0000000371  0.0000207851 -0.0000004634 -0.0000003558  0.0000000871 
 0.0592753300  0.0071597210  0.0462237710 -0.0000354346 -0.0000598074  0.0004136571  0.0000002432  0.0000535675 -0.0000023130 -0.0000012287  0.0000003626 
 0.0592753300  0.0103104370  0.0663785850 -0.0000656902 -0.0000957686  0.0008531671  0.0000008802  0.0000978417 -0.0000071316 -0.0000027051  0.0000009430 
 0.0592753300  0.0136432490  0.0875053900 -0.0001027882 -0.0001336652  0.0014813941  0.0000023189  0.0001507394 -0.0000170636 -0.0000046632  0.0000019101 
 0.0592753300  0.0171680150  0.1095454000 -0.0001437119 -0.0001685013  0.0023139326  0.0000050172  0.0002097148 -0.0000347796 -0.0000066684  0.0000032840 
 0.0592753300  0.0208950430  0.1323867100 -0.0001843023 -0.0001934197  0.0033547558  0.0000094878  0.0002726658 -0.0000632208 -0.0000077994  0.0000049712 
 0.0592753300  0.0248351040  0.1558582500 -0.0002191353 -0.0002000115  0.0045896345  0.0000162570  0.0003380697 -0.0001051171 -0.0000066063  0.0000067063 
 0.0592753300  0.0289994430  0.1797331900 -0.0002415736 -0.0001797660  0.0059817259  0.0000258183  0.0004051066 -0.0001623668 -0.0000014787  0.0000080208 
 0.0592753300  0.0333997840  0.2037443300 -0.0002441113 -0.0001268083  0.0074726364  0.0000385881  0.0004737283 -0.0002355315  0.0000084355  0.0000082866 
 0.0592753300  0.0380483390  0.2276102300 -0.0002190502 -0.0000412720  0.0089904823  0.0000548842  0.0005446012 -0.0003237506  0.0000221214  0.0000068604 
 0.0592753300  0.0429578120  0.2510665300 -0.0001593603  0.0000682497  0.0104624340  0.0000749507  0.0006188538 -0.0004251597  0.0000362655  0.0000033027 
 0.0592753300  0.0481414020  0.2738944100 -0.0000593724  0.0001849472  0.0118260940  0.0000990431  0.0006976493 -0.0005375098  0.0000462073 -0.0000024102 
 0.0592753300  0.0536128000  0.2959400600  0.0000850911  0.0002873453  0.0130350780  0.0001275522  0.0007816533 -0.0006584708  0.0000479716 -0.0000097731 
 0.0592753300  0.0593861920  0.3171228300  0.0002772675  0.0003545963  0.0140585670  0.0001610808  0.0008704166 -0.0007853779  0.0000400136 -0.0000178022 
 0.0592753300  0.0654762470  0.3374329100  0.0005202674  0.0003709227  0.0148779090  0.0002003502  0.0009620036 -0.0009147207  0.0000232117 -0.0000252029 
 0.0592753300  0.0718981100  0.3569203000  0.0008173513  0.0003287190  0.0154829760  0.0002459273  0.0010538550 -0.0010418923 -0.0000009043 -0.0000304840 
 0.0592753300  0.0786673890  0.3756786700  0.0011711645  0.0002323539  0.0158693970  0.0002979755  0.0011452030 -0.0011614785 -0.0000316116 -0.0000320234 
 0.0592753300  0.0858001340  0.3938291100  0.0015823306  0.0001023343  0.0160372240  0.0003562530  0.0012388556 -0.0012682733 -0.0000683611 -0.0000284719 
 0.0592753300  0.0933128140  0.4115026500  0.0020482962 -0.0000259633  0.0159905310  0.0004203070  0.0013390350 -0.0013589830 -0.0001091973 -0.0000195782 
 0.0592753300  0.1012222900  0.4288114800  0.0025630306 -0.0001142834  0.0157382040  0.0004896664  0.0014453706 -0.0014336303 -0.0001500677 -0.0000067195 
 0.0592753300  0.1095457800  0.4458063800  0.0031182664 -0.0001387450  0.0152987360  0.0005639429  0.0015486586 -0.0014955613 -0.0001849971  0.0000074980 
 0.0592753300  0.1183008000  0.4624336300  0.0037067025 -0.0000948759  0.0147074840  0.0006427349  0.0016341708 -0.0015499316 -0.0002080954  0.0000203203 
 0.0592753300  0.1275051600  0.4785228600  0.0043246104  0.0000202222  0.0140178350  0.0007250024  0.0016915597 -0.0016008898 -0.0002177028  0.0000298176 
 0.0592753300  0.1371768600  0.4938416300  0.0049688324  0.0002294836  0.0132905380  0.0008080635  0.0017233830 -0.0016494226 -0.0002155321  0.0000348820 
 0.0592753300  0.1473340300  0.5081919500  0.0056277704  0.0005642292  0.0125729720  0.0008878768  0.0017438300 -0.0016944849 -0.0001968150  0.0000349280 
 0.0592753300  0.1579949000  0.5214681300  0.0062732519  0.0010166445  0.0118875440  0.0009615834  0.0017691996 -0.0017335998 -0.0001468718  0.0000307531 
 0.0592753300  0.1691776600  0.5336400000  0.0068596578  0.0015099026  0.0112483530  0.0010295817  0.0018087078 -0.0017626422 -0.0000556982  0.0000237889 
 0.0592753300  0.1809004200  0.5446838000  0.0073329083  0.0019158838  0.0106798110  0.0010945942  0.0018598670 -0.0017818908  0.0000701408  0.0000127156 
 0.0592753300  0.1931810600  0.5545628000  0.0076533497  0.0020993523  0.0102049550  0.0011606008  0.0019109493 -0.0017979423  0.0002152942 -0.0000051670 
 0.0592753300  0.2060371800  0.5633179600  0.0078247444  0.0019666014  0.0098246521  0.0012334420  0.0019490201 -0.0018160993  0.0003645453 -0.0000283533 
 0.0592753300  0.2194859000  0.5711835000  0.0078904976  0.0014945020  0.0094921891  0.0013169453  0.0019677511 -0.0018380389  0.0004966877 -0.0000499018 
 0.0592753300  0.2335437900  0.5785352800  0.0078918230  0.0008085820  0.0091401161  0.0014068737  0.0019719059 -0.0018620982  0.0005783938 -0.0000591603 
 0.0592753300  0.2482267400  0.5856744300  0.0078491996  0.0001903440  0.0087565517  0.0014931287  0.0019675691 -0.0018806341  0.0005839529 -0.0000504805 
 0.0592753300  0.2635497300  0.5928500200  0.0077706996 -0.0001358141  0.0083418786  0.0015645275  0.0019564039 -0.0018801359  0.0005279540 -0.0000320836 
 0.0592753300  0.2795267600  0.6002271300  0.0076342228 -0.0001445655  0.0079034185  0.0016104390  0.0019396629 -0.0018483617  0.0004620993 -0.0000162952 
 0.0592753300  0.2961706300  0.6076503000  0.0073832997  0.0000064775  0.0074785053  0.0016265427  0.0019240562 -0.0017881907  0.0004353876 -0.0000050979 
 0.0592753300  0.3134928000  0.6150473000  0.0070045274  0.0000475732  0.0070676920  0.0016195498  0.0019168462 -0.0017097199  0.0004637428  0.0000029813 
 0.0592753300  0.3315031900  0.6227762000  0.0065878973 -0.0001778156  0.0066172513  0.0015997963  0.0019228599 -0.0016169145  0.0005132758  0.0000091292 
 0.0592753300  0.3502099900  0.6309467500  0.0062643575 -0.0005902351  0.0060940839  0.0015693994  0.0019576401 -0.0015256664  0.0005170465  0.0000170180 
 0.0592753300  0.3696195000  0.6392342800  0.0061092574 -0.0009673462  0.0055465940  0.0015242702  0.0019938379 -0.0014540716  0.0004490333  0.0000322811 
 0.0592753300  0.3897359400  0.6474622900  0.0060722022 -0.0011348555  0.0050475940  0.0014685116  0.0019999863 -0.0014043973  0.0003363008  0.0000535829 
 0.0592753300  0.4105612500  0.6556434100  0.0060021684 -0.0012262763  0.0046489496  0.0014148851  0.0020071802 -0.0013709490  0.0002219764  0.0000711584 
 0.0592753300  0.4320949500  0.6636939500  0.0057854361 -0.0015886317  0.0043501492  0.0013710951  0.0020108183 -0.0013167437  0.0001596573  0.0000836849 
 0.0592753300  0.4543339100  0.6715749700  0.0054103264 -0.0023018891  0.0041596341  0.0013347214  0.0019775407 -0.0012342434  0.0001744672  0.0000910150 
 0.0592753300  0.4772722700  0.6792964500  0.0049568697 -0.0029198255  0.0040359311  0.0012980023  0.0018896590 -0.0011662406  0.0002067980  0.0000898768 
 0.0592753300  0.5009012200  0.6868019100  0.0045557426 -0.0029680498  0.0039214667  0.0012570037  0.0017627507 -0.0011243451  0.0002160896  0.0000771887 
 0.0592753300  0.5252089400  0.6941025500  0.0042947522 -0.0025694903  0.0037780181  0.0012107466  0.0016310774 -0.0010885947  0.0002153019  0.0000577383 
 0.0592753300  0.5501804400  0.7009234300  0.0041259475 -0.0019129281  0.0036321617  0.0011586359  0.0014947975 -0.0010490131  0.0001858048  0.0000487180 
 0.0592753300  0.5757975200  0.7072301900  0.0038996589 -0.0011636831  0.0034676083  0.0011057649  0.0013617291 -0.0009928334  0.0001373481  0.0000516197 
 0.0592753300  0.6020386800  0.7132151800  0.0035296702 -0.0003593233  0.0032829036  0.0010588973  0.0012524988 -0.0009225973  0.0000715046  0.0000612526 
 0.0592753300  0.6288791200  0.7192674400  0.0030284625  0.0005181285  0.0030663451  0.0010229400  0.0011638543 -0.0008428743  0.0000184158  0.0000678517 
 0.0592753300  0.6562907500  0.7254767700  0.0024491968  0.0014266775  0.0028669965  0.0009955946  0.0010785961 -0.0007651979 -0.0000086588  0.0000666628 
 0.0592753300  0.6842422000  0.7312169900  0.0019148393  0.0022323229  0.0027482447  0.0009685370  0.0010095545 -0.0007120670 -0.0000289312  0.0000528980 
 0.0592753300  0.7126989400  0.7361427700  0.0015241167  0.0027205815  0.0026506141  0.0009354113  0.0009625315 -0.0006649509 -0.0000219661  0.0000329382 
 0.0592753300  0.7416233400  0.7408185200  0.0012332740  0.0027849047  0.0025048797  0.0008983857  0.0009286847 -0.0006097254  0.0000006909  0.0000256657 
 0.0592753300  0.7709749000  0.7455493200  0.0009842105  0.0026668153  0.0023230702  0.0008608102  0.0009003714 -0.0005555503  0.0000163103  0.0000317572 
 0.0592753300  0.8007103400  0.7502418800  0.0007748323  0.0026402366  0.0021160908  0.0008221809  0.0008747841 -0.0004965646  0.0000092656  0.0000411479 
 0.0592753300  0.8307839000  0.7547600400  0.0005819675  0.0027451418  0.0019035744  0.0007803003  0.0008476681 -0.0004274420 -0.0000161036  0.0000506939 
 0.0592753300  0.8611475900  0.7587845800  0.0003523916  0.0028484963  0.0017236036  0.0007378975  0.0008194321 -0.0003517853 -0.0000321202  0.0000574704 
 0.0592753300  0.8917514200  0.7622740000  0.0000634246  0.0029206738  0.0015576539  0.0006990974  0.0007909138 -0.0002710921 -0.0000246728  0.0000545990 
 0.0592753300  0.9225437800  0.7652999200 -0.0002666712  0.0030790565  0.0013858995  0.0006655588  0.0007714317 -0.0001899704 -0.0000166139  0.0000423748 
 0.0592753300  0.9534717500  0.7675703000 -0.0006202719  0.0033480812  0.0012302620  0.0006399018  0.0007517147 -0.0001033814 -0.0000250240  0.0000251219 
 0.0592753300  0.9844814800  0.7689188000 -0.0009832562  0.0035849294  0.0011246545  0.0006255174  0.0007321953 -0.0000062376 -0.0000383874  0.0000050376 
 0.0592753300  1.0155185000  0.7693334400 -0.0013414353  0.0036195931  0.0010788320  0.0006287957  0.0007295994  0.0000865836 -0.0000348395 -0.0000138586 